/*--------------------------------*- C++ -*----------------------------------*\
| =========                 |                                                 |
| \\      /  F ield         | OpenFOAM: The Open Source CFD Toolbox           |
|  \\    /   O peration     | Version:  2512                                  |
|   \\  /    A nd           | Website:  www.openfoam.com                      |
|    \\/     M anipulation  |                                                 |
\*---------------------------------------------------------------------------*/
FoamFile
{
    version     2.0;
    format      ascii;
    arch        "LSB;label=32;scalar=64";
    class       volScalarField;
    location    "2";
    object      B;
}
// * * * * * * * * * * * * * * * * * * * * * * * * * * * * * * * * * * * * * //

dimensions      [0 -3 0 0 1 0 0];

internalField nonuniform List<scalar> 79633(0.0 0.0 0.0 0.0 0.0 0.0 0.0 0.0 0.0 0.0 0.0 0.0 0.0 0.0 0.0 0.0 0.0 0.0 0.0 0.0 0.0 0.0 0.0 0.0 0.0 0.0 0.0 0.0 0.0 0.0 0.0 0.0 0.0 0.0 0.0 0.0 0.0 0.0 0.0 0.0 0.0 0.0 0.0 0.0 0.0 0.0 0.0 0.0 0.0 0.0 0.0 0.0 0.0 0.0 0.0 0.0 0.0 0.0 0.0 0.0 0.0 0.0 0.0 3.5121e-319 -1.61654e-315 1.01798e-310 -1.73483e-302 1.21951e-294 1.80519e-283 -2.12292e-272 4.09483e-264 -1.7247e-256 4.47069e-249 -3.40555e-242 -3.69824e-230 2.75604e-221 -6.89721e-214 1.47105e-206 -3.16119e-200 1.3731e-193 -2.43538e-187 -1.06756e-181 -8.15445e-176 -1.69691e-162 5.36023e-157 1.13677e-149 -2.40601e-141 1.12287e-132 -1.10074e-127 -5.45957e-126 1.4231e-122 -3.60767e-120 -1.01388e-118 -1.15625e-116 -5.29807e-117 1.19374e-118 8.96529e-118 1.304e-117 8.79992e-118 3.47406e-118 5.26775e-118 2.11471e-117 6.79568e-117 1.49945e-116 2.6377e-116 3.79574e-116 2.95674e-116 7.22206e-117 2.79597e-118 9.62671e-121 1.99855e-124 4.4574e-129 3.78342e-132 -4.71357e-133 -2.82794e-134 -5.30073e-136 -6.61075e-137 -1.72463e-137 -4.49611e-140 -1.03498e-139 -7.73063e-141 -2.69584e-143 -2.27896e-147 2.82061e-149 2.27352e-150 2.82112e-149 1.3073e-150 3.56937e-154 5.85606e-157 5.81208e-162 5.28722e-167 -7.61302e-167 8.25651e-163 -5.67968e-157 3.92233e-151 -2.72103e-145 1.89127e-139 -1.32189e-133 9.29065e-128 -6.57949e-122 4.68637e-116 -3.37021e-110 2.44867e-104 -1.80196e-98 1.34205e-92 -1.01564e-86 7.8264e-81 -6.13975e-75 4.91905e-69 -4.02584e-63 3.36433e-57 -2.85632e-51 2.44339e-45 -2.06949e-39 3.15719e-26 5.00605e-23 7.33305e-22 -5.05624e-13 5990.35 6000.0 6000.0 6000.0 6000.0 6000.0 6000.0 6000.0 6000.0 6000.0 6000.0 6000.0 6000.0 6000.0 6000.0 6000.0 6000.0 9.10701 1.11576e-05 3.69647e-15 2.89684e-16 2.62765e-18 -1.49994e-19 -3.43971e-19 -3.09876e-19 -1.52791e-19 -3.45032e-20 -2.3282e-21 -1.13674e-22 -3.74805e-24 -1.11465e-25 -1.96176e-27 -2.08356e-29 -1.51648e-31 -1.96565e-34 -1.99696e-38 -4.58499e-43 -1.40011e-47 -3.98298e-52 -1.32295e-56 3.37888e-60 7.79762e-61 1.26929e-62 6.61227e-66 5.68562e-71 2.30703e-67 -1.82984e-61 1.23915e-55 5.18999e-48 5.92842e-33 1.53904e-27 7.67113e-23 3.06147e-16 5991.69 6000.0 6000.0 6000.0 6000.0 6000.0 6000.0 6000.0 6000.0 6000.0 6000.0 6000.0 6000.0 6000.0 6000.0 6000.0 6000.0 7.65323 7.82052e-06 3.58094e-16 7.7148e-24 3.03904e-31 1.16054e-33 5.19147e-29 2.50995e-25 5.29861e-23 6.70619e-22 -3.09136e-13 5992.61 6000.0 6000.0 6000.0 6000.0 6000.0 6000.0 6000.0 6000.0 6000.0 6000.0 6000.0 6000.0 6000.0 6000.0 6000.0 6000.0 8.12909 9.21423e-06 1.14088e-15 1.20522e-16 3.34734e-19 1.62359e-21 -1.03197e-20 -6.47421e-21 -1.9327e-21 -3.72665e-23 -1.54272e-25 -9.79731e-30 -6.45667e-35 -3.42721e-40 -1.81705e-45 -5.07244e-48 6.73038e-45 -5.27664e-39 1.54359e-25 1.05778e-22 1.49516e-21 -1.11641e-12 5989.32 6000.0 6000.0 6000.0 6000.0 6000.0 6000.0 6000.0 6000.0 6000.0 6000.0 6000.0 6000.0 6000.0 6000.0 6000.0 6000.0 10.8851 2.17866e-05 5.04049e-12 -1.78161e-14 -1.29141e-13 -2.55417e-13 -2.53486e-13 -1.31267e-13 -3.16074e-14 -3.79332e-15 -2.59889e-16 -1.76789e-17 -9.3167e-19 -2.89643e-20 -4.77355e-22 2.84648e-24 8.6853e-24 8.07866e-24 3.37712e-24 8.7473e-26 1.97801e-27 1.08655e-29 1.12529e-30 2.61204e-31 5.99512e-32 1.13071e-32 1.77673e-33 2.33793e-34 7.50542e-36 -2.42406e-35 -2.81471e-35 -2.69522e-35 -2.41386e-35 -2.11774e-35 -1.39773e-35 -6.99151e-36 -2.13807e-36 -3.4678e-38 -5.31683e-39 -6.54954e-40 -1.46112e-41 -1.79717e-42 -3.17661e-43 -2.32699e-44 -5.6799e-46 -6.11274e-47 1.6786e-48 7.92999e-48 7.66847e-48 7.44699e-48 7.07635e-48 5.15796e-48 2.16001e-48 3.28526e-50 4.43792e-51 6.51447e-52 2.67653e-53 1.34035e-54 2.09139e-55 1.72698e-56 3.35815e-58 2.46679e-59 2.63659e-60 2.67424e-60 6.78689e-60 5.96147e-59 5.82381e-57 1.36947e-58 5.90516e-62 -3.27546e-63 -2.34878e-63 -9.57583e-65 -3.89802e-68 2.65193e-71 1.95114e-71 2.19235e-71 1.48046e-71 1.90033e-71 1.25983e-72 6.14805e-76 -1.0507e-79 -4.71169e-81 -6.04097e-84 -7.77488e-88 -4.49407e-90 -5.11315e-93 -3.05397e-97 -7.92248e-102 -1.92258e-106 -4.60077e-111 2.28358e-115 1.7048e-116 1.90424e-118 2.33805e-121 7.24226e-124 2.80408e-128 -6.38317e-133 -1.21836e-134 -2.40598e-136 -1.51354e-139 -1.46142e-144 -1.27043e-149 3.7418e-152 1.45655e-153 2.50213e-155 4.79839e-157 9.3262e-161 1.62781e-163 -8.76048e-166 -9.79364e-168 -8.23381e-173 6.72386e-173 3.41847e-174 8.80123e-176 2.35214e-179 -6.86687e-184 -5.9922e-185 -1.11907e-186 -2.65934e-190 5.25728e-195 8.9247e-197 1.54051e-198 6.27272e-202 5.46564e-207 1.92288e-210 -2.95364e-206 1.50099e-200 2.31194e-169 -3.48277e-163 1.08443e-159 2.38205e-160 -9.6254e-159 -1.87652e-158 -8.1791e-157 -1.16096e-153 1.24829e-154 2.0912e-154 2.17931e-152 -1.70111e-150 -1.43376e-148 -9.72384e-148 3.26718e-139 8.03525e-138 1.54003e-135 5.91133e-135 4.24331e-135 -1.72763e-135 -3.47903e-132 -8.12699e-132 -2.01041e-129 -2.36928e-129 -1.13604e-129 -1.43977e-128 -3.85342e-129 6.07311e-130 2.74777e-129 8.14202e-128 4.74795e-127 8.81471e-127 8.97887e-126 3.06915e-125 1.67656e-125 2.13814e-127 -4.88538e-129 -8.32433e-129 -2.05242e-128 -4.34406e-128 -4.2062e-128 -2.14676e-128 -2.11026e-129 -1.88069e-131 -6.05124e-135 2.74018e-140 4.22346e-140 3.5817e-142 4.23022e-146 1.12757e-151 -2.59582e-152 -1.68248e-154 -1.30133e-158 1.78555e-162 1.51703e-163 3.34891e-166 -2.18808e-171 -9.39992e-173 -5.13484e-176 -5.03014e-181 -4.57696e-186 4.22788e-191 9.03677e-192 1.2302e-194 1.89673e-196 1.1825e-200 -6.12704e-202 -2.40054e-203 -9.98174e-206 -2.69475e-208 -7.65616e-212 1.5904e-214 1.08263e-215 1.61019e-218 1.85387e-222 8.52085e-225 -5.65116e-224 -1.49368e-225 -4.76934e-229 3.67846e-231 2.986e-233 -8.07431e-238 -4.36743e-238 -4.35397e-241 -4.77421e-246 2.71069e-246 4.02249e-249 5.9211e-251 3.69123e-250 5.75853e-252 1.17439e-255 -7.86763e-259 -1.85043e-260 -7.45679e-264 -6.13152e-269 -1.34826e-268 -4.92594e-271 -7.20125e-275 -1.92725e-276 -1.30576e-280 8.09661e-284 3.30736e-282 4.49825e-284 7.79622e-286 9.94346e-290 4.01566e-295 -7.14112e-295 -2.93292e-296 -2.82654e-298 -2.39869e-302 -9.32752e-308 -4.8034e-308 -5.26339e-310 -4.41124e-314 -5.80491e-316 9.70925e-317 -2.79497e-316 -1.83142e-317 0.0 0.0 -4e-323 8.15e-322 0.0 0.0 0.0 0.0 0.0 0.0 0.0 0.0 0.0 0.0 0.0 0.0 0.0 0.0 0.0 0.0 0.0 0.0 0.0 0.0 0.0 0.0 0.0 0.0 0.0 0.0 0.0 0.0 0.0 0.0 0.0 0.0 0.0 0.0 0.0 0.0 0.0 0.0 0.0 0.0 0.0 0.0 0.0 0.0 0.0 0.0 0.0 0.0 0.0 0.0 0.0 0.0 0.0 0.0 0.0 0.0 0.0 0.0 0.0 0.0 0.0 0.0 0.0 0.0 0.0 0.0 0.0 0.0 0.0 0.0 0.0 0.0 0.0 0.0 0.0 0.0 0.0 0.0 0.0 0.0 0.0 0.0 0.0 0.0 0.0 0.0 0.0 0.0 0.0 0.0 0.0 0.0 0.0 0.0 0.0 0.0 0.0 0.0 -5.17e-321 2.61271e-315 -1.41878e-312 6.48329e-304 -6.66419e-296 5.45289e-288 -2.81895e-280 -2.28851e-269 2.10329e-258 -7.18817e-250 1.74689e-242 -2.75644e-235 -4.61204e-228 7.34834e-217 -2.36607e-207 7.12495e-200 -1.03204e-193 4.5464e-187 -7.49201e-181 3.21889e-175 -2.14091e-169 -2.8789e-159 1.09538e-150 -2.21777e-145 1.039e-138 1.52067e-130 -1.81403e-123 -3.53927e-122 -1.86981e-121 -2.77031e-115 -2.39822e-114 -3.91215e-113 -7.78142e-113 -6.09505e-113 -7.22882e-114 3.30579e-115 3.21872e-115 1.41328e-115 4.09356e-117 -7.14548e-116 -7.59146e-116 3.4428e-115 2.13974e-114 8.60804e-114 3.04834e-113 8.13278e-113 1.18977e-112 1.15919e-112 8.7247e-113 3.74355e-113 6.24123e-114 2.61598e-115 1.85386e-117 1.31315e-119 5.20998e-120 2.18752e-120 4.53249e-121 2.69263e-122 2.87252e-124 3.84946e-127 -3.98064e-130 -2.06732e-130 -3.81021e-131 -7.29352e-132 -5.31602e-133 -2.23893e-135 -4.16843e-139 -7.68119e-144 -2.38582e-148 -3.62568e-150 -2.46688e-151 -1.92159e-149 2.71806e-150 -1.51945e-146 2.66641e-141 -2.10141e-135 1.63088e-129 -1.28645e-123 1.02777e-117 -8.36447e-112 6.94155e-106 -5.89462e-100 5.11693e-94 -4.56527e-88 4.19672e-82 -3.97019e-76 3.87569e-70 -3.89085e-64 3.98691e-58 -4.08582e-52 4.04047e-46 -3.57406e-40 1.02582e-27 9.98807e-25 1.10055e-25 -6.25264e-19 5992.72 6000.0 6000.0 6000.0 6000.0 6000.0 6000.0 6000.0 6000.0 6000.0 6000.0 6000.0 6000.0 6000.0 6000.0 6000.0 6000.0 6.85851 1.79401e-06 4.02388e-10 2.51295e-12 5.20065e-15 -4.9886e-16 -7.86729e-16 -7.45933e-16 -5.75929e-16 -3.29347e-16 -1.03169e-16 -1.78121e-17 -2.67931e-18 -1.53963e-19 -3.32764e-21 -3.27948e-23 -2.16918e-25 -4.10836e-28 -1.40534e-31 -3.1837e-35 -4.00027e-39 -3.28988e-43 -2.67449e-47 8.64966e-51 5.56017e-51 8.57734e-52 1.52799e-53 1.6182e-56 1.00396e-57 -6.69357e-52 7.97072e-46 -9.77814e-40 1.44161e-33 -1.33903e-27 1.18227e-21 -5.25043e-13 5993.72 6000.0 6000.0 6000.0 6000.0 6000.0 6000.0 6000.0 6000.0 6000.0 6000.0 6000.0 6000.0 6000.0 6000.0 6000.0 6000.0 5.7602 1.29913e-06 6.94406e-16 3.96831e-23 4.90921e-30 9.46747e-32 1.85279e-27 1.9994e-24 1.44176e-22 1.03367e-21 -4.72121e-13 5994.35 6000.0 6000.0 6000.0 6000.0 6000.0 6000.0 6000.0 6000.0 6000.0 6000.0 6000.0 6000.0 6000.0 6000.0 6000.0 6000.0 6.25505 1.67959e-06 2.67783e-10 1.96823e-12 2.10482e-15 4.72467e-19 -6.04171e-19 -5.72618e-19 -4.20592e-19 -1.98478e-19 -2.69918e-20 -2.72269e-22 -1.10338e-25 -1.96168e-30 -3.65311e-35 -3.86885e-40 -8.40964e-45 -6.96286e-40 3.38285e-27 3.95583e-25 1.34817e-22 -8.28075e-14 5992.0 6000.0 6000.0 6000.0 6000.0 6000.0 6000.0 6000.0 6000.0 6000.0 6000.0 6000.0 6000.0 6000.0 6000.0 6000.0 6000.0 8.15058 3.6103e-06 7.56859e-10 -2.4848e-09 -6.16446e-09 -8.32291e-09 -7.75489e-09 -4.87112e-09 -1.92382e-09 -4.88362e-10 -8.15121e-11 -8.89964e-12 -6.19421e-13 -2.57818e-14 -5.75382e-16 -7.6283e-18 -1.16906e-19 3.09524e-22 1.14191e-21 9.92385e-22 3.68815e-22 1.99329e-23 1.07744e-24 2.11678e-25 6.29831e-26 1.58352e-26 3.1225e-27 5.39948e-28 9.09698e-29 1.85987e-29 3.81432e-30 5.8961e-31 5.37265e-32 -5.23224e-33 -8.66327e-33 -8.10642e-33 -7.20274e-33 -6.07525e-33 -3.74163e-33 -1.68111e-33 -1.19772e-34 -1.20832e-35 -2.84571e-36 -3.25372e-37 -5.9969e-39 -6.33874e-40 -8.71544e-41 -3.85887e-42 -2.002e-43 -3.88521e-44 -5.51084e-46 6.5252e-45 6.34604e-45 5.58845e-45 3.61677e-45 1.58162e-45 3.54738e-46 9.41135e-48 1.62025e-48 1.95485e-49 3.34229e-51 1.69465e-52 2.04282e-53 1.0761e-53 3.26756e-53 5.03303e-52 3.63129e-53 1.35659e-55 -5.12169e-56 -6.08088e-56 -1.2502e-57 -5.4992e-61 1.10146e-65 1.43214e-65 1.4437e-65 1.29545e-65 1.48427e-65 2.29663e-66 1.22453e-68 -1.82671e-71 -4.45704e-72 -1.37848e-73 -4.65871e-76 -8.82838e-80 5.14212e-84 3.08527e-85 1.2002e-87 5.19635e-91 1.76331e-94 4.73587e-97 4.83709e-100 -1.06412e-103 -1.13645e-103 -1.34487e-104 -1.12487e-106 -4.58288e-110 2.49864e-114 1.38014e-115 4.05898e-118 5.79498e-122 1.47668e-126 3.69276e-131 -3.03986e-135 -4.03757e-136 -6.44544e-138 -5.26619e-141 -1.46036e-145 1.52974e-147 2.69343e-148 3.46474e-150 1.69605e-153 -6.16395e-156 -8.21552e-157 -5.03691e-159 -1.04905e-162 3.95204e-166 2.51909e-167 8.60678e-170 1.41547e-173 -6.76798e-178 -3.41942e-179 -8.96044e-182 -2.68533e-185 -2.29276e-189 -3.74665e-190 1.17652e-189 -5.96393e-182 1.07502e-160 2.50084e-154 1.02276e-153 7.50363e-154 1.34632e-154 -5.90251e-152 -7.47785e-153 -1.89429e-150 2.84791e-149 1.57913e-147 1.25692e-148 -2.81992e-144 -3.63572e-142 -3.15145e-141 3.00151e-134 5.7956e-133 8.59529e-133 1.56804e-132 -6.48683e-130 -1.15506e-128 -1.00238e-125 -2.41127e-125 -1.16447e-123 -6.69856e-124 -1.77728e-124 -1.22182e-125 2.58934e-125 4.74038e-123 1.11945e-122 8.76977e-122 1.24741e-120 1.68069e-120 1.49401e-119 2.67586e-120 6.34206e-122 -1.27297e-123 -3.25513e-123 -6.7608e-123 -1.52974e-122 -3.53664e-122 -6.1031e-122 -5.55339e-122 -1.71535e-122 -7.78651e-124 -2.60302e-126 -4.8029e-130 4.17415e-131 3.85293e-132 1.24029e-134 1.04375e-138 -4.44623e-143 -1.99128e-144 -4.35979e-147 -4.85057e-151 -1.15804e-155 -2.74821e-160 1.1083e-164 3.78353e-166 1.49443e-168 6.40916e-171 4.58052e-172 2.77354e-177 -5.29453e-175 -1.70435e-176 -1.64985e-179 -4.19984e-184 2.45432e-185 3.40526e-186 2.99586e-188 1.63625e-191 -4.26247e-196 -1.64592e-196 -5.35357e-198 -1.02935e-200 -6.88184e-205 1.82517e-205 3.72398e-207 5.11353e-210 -5.83656e-213 -1.05827e-213 -1.08118e-215 -2.53092e-219 5.77841e-221 8.64145e-223 2.13e-225 2.3342e-229 -3.91706e-230 -6.13033e-232 -5.05811e-233 -1.50002e-235 -1.06566e-239 5.88466e-242 5.17599e-243 2.50452e-245 2.02914e-247 2.59157e-251 2.36276e-256 2.27812e-255 4.28668e-259 7.21065e-264 5.27526e-265 -5.80056e-265 -2.63221e-266 -2.02869e-268 -3.64178e-272 -4.61117e-277 1.78326e-277 6.32999e-279 2.82121e-282 5.72779e-285 1.41297e-287 9.36278e-291 4.32308e-295 1.38036e-299 1.10845e-301 1.10879e-304 2.29779e-306 7.62874e-310 3.81314e-315 8.93986e-313 1.35285e-315 -9.48881e-317 -5.36008e-317 -2.7168e-319 0.0 1e-323 -1.176e-321 0.0 0.0 0.0 0.0 0.0 0.0 0.0 0.0 0.0 0.0 0.0 0.0 0.0 0.0 0.0 0.0 0.0 0.0 0.0 0.0 0.0 0.0 0.0 0.0 0.0 0.0 0.0 0.0 0.0 0.0 0.0 0.0 0.0 0.0 0.0 0.0 0.0 0.0 0.0 0.0 0.0 0.0 0.0 0.0 0.0 0.0 0.0 0.0 0.0 0.0 0.0 0.0 0.0 0.0 0.0 0.0 0.0 0.0 0.0 0.0 0.0 0.0 0.0 0.0 0.0 0.0 0.0 0.0 0.0 0.0 0.0 0.0 0.0 0.0 0.0 0.0 0.0 0.0 0.0 0.0 0.0 0.0 0.0 0.0 0.0 0.0 0.0 0.0 0.0 0.0 0.0 0.0 1.357e-320 -1.04517e-317 3.16606e-314 -5.36409e-306 7.03594e-298 -7.0082e-290 5.57705e-282 -3.26363e-274 1.07267e-266 4.40138e-256 -3.07716e-245 1.66149e-236 -2.5366e-229 3.48572e-222 8.04185e-216 -2.01955e-204 7.82763e-195 -1.08785e-187 4.4013e-181 -6.30853e-175 2.77738e-169 -1.81583e-163 8.95892e-158 1.27041e-145 -1.86886e-139 1.9602e-132 -3.34714e-125 -5.2014e-122 -1.18532e-120 6.4258e-118 -1.7881e-113 -9.76423e-113 1.08879e-111 5.29786e-112 -6.25703e-111 -7.25783e-111 -2.84554e-111 -1.69779e-111 -5.46737e-111 -1.80035e-110 -1.4947e-109 -3.99924e-109 -4.16585e-109 -3.04092e-109 -1.39973e-109 -3.61531e-110 -1.12886e-110 -6.71951e-111 -2.75667e-112 1.79561e-110 6.25822e-110 1.43419e-109 2.17372e-109 2.26374e-109 2.09756e-109 1.54667e-109 7.47072e-110 1.79685e-110 1.52651e-111 5.02657e-113 1.15307e-113 6.81685e-114 3.24717e-114 7.83226e-115 6.14924e-116 1.02207e-117 2.49924e-120 7.32201e-124 3.2173e-128 2.01238e-132 1.04183e-133 6.5605e-134 2.29644e-133 1.18803e-133 1.35839e-134 9.06795e-136 5.86614e-138 8.55546e-131 -9.63276e-127 9.7849e-121 -1.01827e-114 1.09903e-108 -1.23764e-102 1.45159e-96 -1.78685e-90 2.31416e-84 -3.13917e-78 4.46009e-72 -6.55075e-66 9.70522e-60 -1.37524e-53 1.70109e-47 -1.50841e-41 3.08652e-30 2.12208e-27 2.05943e-28 3.86435e-17 5991.71 6000.0 6000.0 6000.0 6000.0 6000.0 6000.0 6000.0 6000.0 6000.0 6000.0 6000.0 6000.0 6000.0 6000.0 6000.0 6000.0 7.95341 4.20476e-05 1.17626e-07 1.9507e-10 1.98414e-13 -1.34704e-14 -1.21253e-14 -1.14351e-14 -1.0745e-14 -9.77123e-15 -8.39705e-15 -6.09207e-15 -3.07469e-15 -8.81771e-16 -1.13129e-16 -8.72977e-18 -2.25305e-19 -9.8914e-22 -4.42747e-25 -1.66188e-29 -8.83432e-34 -4.68265e-38 -3.06999e-42 6.208e-44 4.66809e-44 1.53761e-44 1.24474e-45 1.39378e-47 1.31403e-50 -4.94155e-52 3.54922e-46 -4.55062e-40 4.60464e-34 -3.94431e-28 1.13726e-23 -1.91325e-19 5992.82 6000.0 6000.0 6000.0 6000.0 6000.0 6000.0 6000.0 6000.0 6000.0 6000.0 6000.0 6000.0 6000.0 6000.0 6000.0 6000.0 6.75328 2.65928e-06 1.90473e-15 4.5729e-22 2.60992e-28 5.41005e-33 6.27552e-30 1.6707e-28 1.08576e-25 3.6348e-24 -2.80932e-19 5993.39 6000.0 6000.0 6000.0 6000.0 6000.0 6000.0 6000.0 6000.0 6000.0 6000.0 6000.0 6000.0 6000.0 6000.0 6000.0 6000.0 7.09793 3.43776e-05 1.14843e-07 2.31587e-10 1.67723e-13 6.6781e-17 1.40534e-17 1.75153e-17 1.02867e-17 -2.29551e-18 -2.69386e-18 -6.12989e-19 -1.82128e-20 -4.62475e-23 -7.05064e-27 -1.28911e-31 -1.10638e-35 -1.57227e-36 4.8603e-30 9.87824e-29 4.06676e-26 -2.09832e-19 5990.81 6000.0 6000.0 6000.0 6000.0 6000.0 6000.0 6000.0 6000.0 6000.0 6000.0 6000.0 6000.0 6000.0 6000.0 6000.0 6000.0 9.31172 0.000114658 -4.05897e-07 -1.71301e-06 -2.31455e-06 -2.44868e-06 -2.13172e-06 -1.46386e-06 -7.84597e-07 -3.29831e-07 -1.07988e-07 -2.68791e-08 -4.91378e-09 -6.24074e-10 -5.03638e-11 -2.22247e-12 -4.79206e-14 -4.60323e-16 -2.20689e-18 2.70082e-20 3.94947e-20 3.24109e-20 1.05496e-20 2.72643e-21 1.06168e-21 4.79395e-22 1.9973e-22 7.41596e-23 2.51087e-23 7.73836e-24 2.07511e-24 4.45957e-25 6.73815e-26 6.43004e-27 4.09308e-28 2.92423e-29 2.1778e-30 -6.13052e-31 -7.8414e-31 -7.28175e-31 -6.40449e-31 -4.84226e-31 -2.7851e-31 -1.14884e-31 -1.05098e-32 -1.21304e-33 -2.1763e-34 -1.17606e-35 -3.5978e-37 -8.04991e-38 -1.83341e-38 -2.22196e-39 -7.55889e-41 3.86082e-43 8.53353e-43 6.9032e-43 5.00109e-43 3.31207e-43 1.56692e-43 5.23177e-44 7.00212e-45 2.73972e-46 3.57266e-47 7.27528e-48 7.21082e-48 7.40695e-49 -5.18966e-51 -2.77704e-50 -8.6122e-51 -1.42858e-52 -1.03004e-55 2.21672e-58 4.35644e-59 1.64593e-60 1.25445e-60 9.1724e-61 1.67031e-61 2.19073e-63 -4.0333e-65 -2.92427e-65 -8.61722e-66 -6.35099e-67 -7.08217e-69 -7.23859e-72 5.45394e-76 5.65021e-77 5.62038e-79 6.14935e-82 3.89118e-85 1.93203e-88 -3.39058e-92 -4.84793e-93 -7.62798e-95 -1.01199e-97 -9.57277e-102 -4.90954e-106 -2.31977e-109 -7.17493e-112 -2.0856e-114 -1.37754e-115 -6.45412e-117 -6.61431e-119 -5.94267e-122 -2.10298e-124 -9.62758e-126 -1.81752e-127 -5.288e-130 -1.40143e-133 1.72723e-136 9.69263e-137 1.62412e-137 4.24738e-139 1.06289e-141 1.548e-146 -1.33428e-147 -4.35115e-149 -6.35852e-152 -5.64096e-156 2.42787e-159 2.06125e-163 1.96563e-163 1.38667e-164 9.82753e-167 4.40263e-169 7.77113e-172 1.07249e-176 8.00782e-178 1.84928e-152 9.44919e-147 4.25061e-147 2.72668e-147 5.1946e-148 -1.49822e-149 1.23e-146 6.26364e-145 4.28857e-143 2.01426e-142 -2.13271e-143 -3.22776e-140 -2.67378e-136 -2.36671e-135 2.25751e-132 4.33765e-131 -1.45668e-127 -1.86508e-127 -5.55322e-124 -9.64199e-123 -5.00552e-121 -7.46672e-121 -4.16164e-121 -1.24525e-121 -2.14406e-122 5.9997e-120 2.49893e-119 7.06056e-117 1.42902e-116 2.26536e-116 1.82003e-115 8.7439e-116 1.34e-116 5.03863e-118 -2.89041e-119 -1.27706e-118 -5.62136e-118 -1.54592e-117 -3.61022e-117 -1.00925e-116 -1.77715e-116 -1.10151e-116 -1.07232e-117 -1.08911e-119 2.00267e-122 1.28491e-122 1.63652e-123 2.59018e-125 3.45683e-128 3.09921e-132 -2.45908e-136 -2.06065e-137 -1.69749e-139 -1.52253e-142 1.07411e-145 1.35726e-146 2.5748e-148 1.26103e-150 1.33074e-153 -9.78548e-157 -1.64168e-157 -4.26275e-159 -1.01386e-161 -3.8172e-165 -1.50104e-167 -1.06381e-169 -3.03316e-172 6.29625e-176 7.89475e-176 1.62228e-176 4.10643e-178 8.53414e-181 6.47476e-185 -1.14538e-185 -1.42111e-186 -1.03573e-188 -3.25772e-192 4.69954e-195 9.44972e-196 1.3425e-197 9.51913e-201 -1.50095e-203 -2.68652e-204 -1.62778e-205 -5.13949e-208 -1.48966e-212 7.19607e-214 7.69203e-215 7.41869e-217 5.63352e-220 1.88373e-224 -3.52655e-226 -1.45941e-227 -3.35247e-228 -1.53072e-230 -1.46432e-234 -1.78948e-236 -1.05329e-237 -6.53315e-240 -1.54167e-243 -3.85749e-248 2.18701e-248 1.8805e-249 1.17983e-251 3.04345e-255 6.54592e-260 -4.83097e-261 -3.77421e-262 -1.53921e-264 -3.73401e-268 -8.72059e-272 -1.08019e-273 -8.19261e-277 -1.61886e-281 -2.92951e-286 -4.74292e-287 -1.40164e-289 -5.33509e-292 -1.35457e-295 -1.44698e-295 -2.13704e-298 -1.54204e-302 -3.48502e-306 -1.22643e-309 -2.05644e-313 3.84971e-316 -9.45102e-317 -1.29811e-316 -7.63609e-317 2.00467e-317 4.16068e-318 2.653e-321 -5e-324 2.67e-322 -1.7144e-320 5.31e-321 0.0 0.0 0.0 0.0 0.0 0.0 0.0 0.0 0.0 0.0 0.0 0.0 0.0 0.0 0.0 0.0 0.0 0.0 0.0 0.0 0.0 0.0 0.0 0.0 0.0 0.0 0.0 0.0 0.0 0.0 0.0 0.0 0.0 0.0 0.0 0.0 0.0 0.0 0.0 0.0 0.0 0.0 0.0 0.0 0.0 0.0 0.0 0.0 0.0 0.0 0.0 0.0 0.0 0.0 0.0 0.0 0.0 0.0 0.0 0.0 0.0 0.0 0.0 0.0 0.0 0.0 0.0 0.0 0.0 0.0 0.0 0.0 0.0 0.0 0.0 0.0 0.0 0.0 0.0 0.0 0.0 0.0 -1.73e-322 1.30014e-317 -1.48007e-314 1.75408e-308 -2.78599e-300 3.5475e-292 -3.4294e-284 2.65226e-276 -1.4397e-268 5.84751e-261 -1.5254e-253 -2.45718e-243 1.29675e-232 -9.00868e-224 1.63832e-216 -1.61032e-209 5.33657e-203 1.02353e-192 -1.7957e-183 1.9082e-175 -2.66392e-169 1.25662e-163 -6.71543e-158 5.7915e-152 4.022e-143 -2.43776e-135 3.3115e-128 -1.40281e-120 1.15271e-117 2.15544e-116 4.14995e-113 4.32544e-111 4.4248e-110 5.15264e-109 7.41368e-109 4.49403e-109 -4.86611e-109 -1.28839e-107 -8.26066e-107 -3.59039e-106 -1.17582e-105 -7.81103e-105 -1.79375e-104 -2.22369e-104 -2.02116e-104 -1.48905e-104 -7.8982e-105 -2.96199e-105 -8.97019e-106 -2.10155e-106 -2.93421e-107 -2.42451e-108 5.91605e-110 1.3778e-108 4.71784e-108 1.47483e-107 3.97444e-107 8.75472e-107 1.48489e-106 1.7486e-106 1.71732e-106 1.50045e-106 1.06821e-106 5.4917e-107 1.67494e-107 2.26896e-108 9.68309e-110 1.03433e-111 1.22487e-113 9.52581e-115 6.13795e-116 -3.63888e-119 -1.1257e-117 -9.32983e-118 -4.69235e-118 -1.00557e-118 -6.07722e-120 -6.81887e-122 -9.81822e-125 -7.01574e-126 6.38847e-122 -5.68251e-118 7.70994e-112 -1.12398e-105 1.74693e-99 -2.94925e-93 5.43138e-87 -1.08103e-80 2.33365e-74 -5.34949e-68 1.25803e-61 -2.83619e-55 5.68553e-49 -9.62548e-43 1.72645e-33 -1.26361e-29 2.48909e-23 -9.18278e-14 5990.92 6000.0 6000.0 6000.0 6000.0 6000.0 6000.0 6000.0 6000.0 6000.0 6000.0 6000.0 6000.0 6000.0 6000.0 6000.0 6000.0 8.8363 0.001772 1.17302e-06 9.66544e-10 1.22492e-12 -1.66016e-14 -1.04056e-14 5.05188e-14 1.07861e-13 7.84566e-14 3.01968e-15 -3.62564e-14 -3.77606e-14 -2.98372e-14 -1.76742e-14 -6.78918e-15 -1.24478e-15 -7.68187e-17 -1.05785e-18 -2.56245e-21 -8.77149e-25 -6.12013e-29 -5.14672e-33 4.59434e-37 5.07703e-37 2.00972e-37 1.87487e-38 2.41374e-40 2.53411e-43 1.57793e-47 5.85625e-47 -9.93456e-41 9.28159e-35 -4.33264e-29 4.05514e-26 -3.70028e-23 5992.11 6000.0 6000.0 6000.0 6000.0 6000.0 6000.0 6000.0 6000.0 6000.0 6000.0 6000.0 6000.0 6000.0 6000.0 6000.0 6000.0 7.56241 3.92831e-06 1.5865e-11 1.19413e-16 2.04636e-21 5.29014e-26 4.28238e-26 4.94977e-28 -2.47227e-28 9.96767e-23 8.41888e-17 5992.62 6000.0 6000.0 6000.0 6000.0 6000.0 6000.0 6000.0 6000.0 6000.0 6000.0 6000.0 6000.0 6000.0 6000.0 6000.0 6000.0 7.75777 0.00173802 1.31442e-06 1.54499e-09 2.28167e-12 1.85508e-13 6.00659e-14 4.45141e-14 4.31407e-14 2.49005e-14 3.62425e-15 4.59355e-17 -9.37393e-18 -2.99908e-18 -1.22101e-19 -3.25958e-22 -3.49389e-26 -9.22435e-31 8.15926e-31 1.35041e-29 6.95034e-30 5.87659e-16 5989.85 6000.0 6000.0 6000.0 6000.0 6000.0 6000.0 6000.0 6000.0 6000.0 6000.0 6000.0 6000.0 6000.0 6000.0 6000.0 6000.0 10.2413 0.00348901 -2.6297e-05 -3.83087e-05 -3.84388e-05 -3.53855e-05 -2.8675e-05 -2.0473e-05 -1.29754e-05 -7.30076e-06 -3.60806e-06 -1.53181e-06 -5.41957e-07 -1.5284e-07 -3.21563e-08 -4.49625e-09 -3.63532e-10 -1.57399e-11 -3.74476e-13 -4.54307e-15 -1.89002e-17 6.22275e-19 6.44071e-19 5.05514e-19 2.55097e-19 1.40074e-19 9.03354e-20 5.7864e-20 3.45412e-20 1.91109e-20 9.78584e-21 4.52776e-21 1.73721e-21 4.91469e-22 1.01782e-22 1.60652e-23 1.96522e-24 1.91662e-25 1.49675e-26 8.67183e-28 3.99994e-30 -3.01745e-29 -2.94332e-29 -2.50555e-29 -2.06075e-29 -1.45537e-29 -7.41368e-30 -1.96707e-30 -2.04597e-31 -4.94536e-32 -1.28999e-32 -2.09188e-33 -9.68642e-35 -7.789e-37 -3.12778e-38 -2.12927e-39 -7.54428e-41 2.01129e-41 1.7299e-41 1.01868e-41 5.34973e-42 2.41161e-42 7.10809e-43 9.93522e-44 3.05914e-45 -6.82419e-46 -1.42618e-45 -2.92839e-46 -3.99009e-48 -1.70981e-51 7.06505e-52 2.70003e-52 2.73119e-53 6.46327e-55 2.50477e-56 3.61205e-57 4.42144e-59 -9.74673e-61 -8.25291e-61 -3.85923e-61 -6.96836e-62 -3.20275e-63 -2.51293e-65 -2.42895e-68 2.61901e-72 4.53154e-73 4.46624e-74 2.94808e-75 4.2675e-77 6.8337e-80 -4.35824e-84 -6.21337e-85 -1.03004e-86 -3.3189e-89 -1.66741e-91 -4.07597e-94 -4.05199e-99 2.91274e-99 1.45643e-100 1.5526e-102 2.45307e-104 1.47742e-106 6.79498e-110 -1.3048e-112 -3.29471e-113 -6.86233e-115 -1.04411e-117 -4.19398e-120 -1.01782e-122 -5.76918e-126 2.91627e-127 1.13496e-127 7.73494e-129 6.0837e-131 7.46265e-134 1.44958e-137 -1.11069e-139 -5.11582e-140 -4.50366e-141 -3.8714e-143 -2.77438e-146 -1.35328e-150 2.20197e-153 6.24245e-154 1.77467e-155 2.27396e-158 1.75533e-161 1.44009e-144 2.42677e-142 6.45582e-143 2.73654e-142 1.96935e-142 6.97468e-143 2.13023e-140 4.2888e-139 1.78334e-138 3.16297e-139 -8.86529e-139 -1.03497e-136 -5.26274e-131 -4.12745e-130 -1.69734e-128 -8.09599e-127 -5.88285e-123 -4.16883e-122 -5.82918e-120 -6.0055e-119 -6.46041e-119 -5.80631e-119 1.6215e-118 1.64776e-117 1.28193e-116 2.27565e-114 1.04769e-113 2.96921e-112 2.92022e-112 1.85969e-112 5.47063e-113 9.20049e-114 -2.90162e-114 -1.26219e-113 -1.8411e-113 -2.59546e-113 -2.9013e-112 -6.33724e-112 -6.14107e-112 -6.08513e-112 -2.35387e-112 -1.8637e-113 -2.02933e-115 2.23163e-116 1.94292e-116 1.11321e-116 3.20422e-117 3.29874e-118 8.23246e-120 3.48084e-122 7.45089e-126 -1.31739e-126 -6.87933e-127 -1.0235e-127 -2.77333e-129 -9.31543e-132 -8.93858e-136 4.76391e-138 6.92539e-139 7.88971e-141 3.02063e-143 4.62266e-146 -3.06798e-150 -6.69833e-151 -2.0705e-152 -1.69293e-154 -5.44589e-157 -3.13074e-160 -1.21877e-164 3.83557e-165 7.15449e-166 2.44534e-167 3.1912e-169 4.16911e-171 2.20637e-173 -3.8306e-176 -5.81215e-177 -1.25558e-178 -6.1919e-181 -1.25117e-183 -1.10995e-186 9.85809e-188 1.94898e-188 5.54627e-190 1.2769e-192 -2.13126e-197 -5.83548e-198 -1.69891e-199 -7.7804e-202 -3.19669e-205 1.61021e-209 1.61262e-209 2.48649e-210 3.22872e-212 1.94858e-215 5.29734e-220 2.60898e-220 3.37443e-221 3.55055e-223 2.36406e-226 7.81566e-231 -1.03629e-232 -9.36318e-234 -4.25884e-236 -4.22555e-240 4.11891e-244 1.01335e-244 1.92151e-246 1.36375e-249 2.38201e-253 4.99833e-256 1.35424e-257 2.89882e-260 5.91758e-264 1.85957e-266 1.47492e-269 6.72504e-274 2.86852e-275 1.6541e-276 4.0989e-279 5.42645e-284 2.71637e-287 1.02377e-289 2.56212e-292 4.58806e-296 5.76387e-300 1.76282e-301 2.08888e-304 9.08959e-309 -5.85219e-310 -1.39925e-312 2.61392e-315 1.20037e-314 -6.68339e-317 -5.30677e-316 -3.50077e-317 0.0 0.0 0.0 0.0 0.0 0.0 0.0 -1e-323 0.0 0.0 5e-324 0.0 0.0 0.0 0.0 0.0 0.0 0.0 0.0 0.0 0.0 0.0 0.0 0.0 0.0 0.0 0.0 0.0 0.0 0.0 0.0 0.0 0.0 0.0 0.0 0.0 0.0 0.0 0.0 0.0 0.0 0.0 0.0 0.0 0.0 0.0 0.0 0.0 0.0 0.0 0.0 0.0 0.0 0.0 0.0 0.0 0.0 0.0 0.0 0.0 0.0 0.0 0.0 0.0 0.0 0.0 0.0 0.0 0.0 0.0 0.0 0.0 0.0 0.0 0.0 0.0 0.0 0.0 0.0 0.0 0.0 1.8e-322 -1.00355e-319 7.25164e-315 -8.76851e-312 5.60085e-303 -8.58877e-295 1.06188e-286 -9.98091e-279 7.50244e-271 -3.96776e-263 1.5768e-255 -4.70696e-248 7.9641e-241 4.97886e-231 -1.69611e-220 1.40913e-211 -3.99633e-204 2.97405e-197 -8.14989e-191 -1.03429e-181 6.63001e-172 -5.31346e-164 3.61923e-158 -1.75062e-152 1.30423e-146 9.54142e-144 -1.30509e-133 1.75013e-126 -2.24705e-118 7.45343e-115 1.69927e-112 4.05832e-110 1.38307e-109 9.76853e-109 -6.25054e-108 -1.69942e-106 -1.09725e-105 -1.29554e-104 -6.74184e-104 -1.39252e-103 -2.47177e-103 -4.73375e-103 -9.39541e-103 -1.71099e-102 -2.26023e-102 -2.27491e-102 -2.09752e-102 -1.62901e-102 -9.8713e-103 -4.24335e-103 -1.1056e-103 -1.31994e-104 6.27795e-107 6.13251e-106 6.0068e-106 5.26529e-106 3.2584e-106 -1.27711e-106 -1.00567e-105 -1.71663e-105 -1.64117e-105 -7.21179e-106 2.37294e-105 9.56918e-105 2.13727e-104 3.21202e-104 3.4451e-104 3.33419e-104 2.86742e-104 1.97886e-104 9.58561e-105 2.63703e-105 3.01826e-106 9.7898e-108 -6.79534e-110 -1.12717e-109 -8.60175e-110 -3.55868e-110 -5.63341e-111 -2.27949e-112 -1.60235e-114 -1.35141e-117 -9.89507e-119 5.94555e-113 -5.75604e-107 9.52641e-101 -1.70587e-94 3.31174e-88 -6.91247e-82 1.58066e-75 -3.94508e-69 1.06988e-62 -3.05301e-56 8.91087e-50 -2.5872e-43 2.80154e-36 -8.9423e-30 1.7881e-23 -2.14105e-15 5990.23 6000.0 6000.0 6000.0 6000.0 6000.0 6000.0 6000.0 6000.0 6000.0 6000.0 6000.0 6000.0 6000.0 6000.0 6000.0 5995.88 9.58277 0.00493255 1.90983e-06 1.96806e-09 1.41567e-10 4.93437e-11 1.1958e-11 7.06074e-12 8.47366e-12 8.58735e-12 6.08917e-12 2.59732e-12 6.207e-13 1.80973e-14 -7.24882e-14 -6.87025e-14 -4.6667e-14 -1.97779e-14 -4.11196e-15 -3.05379e-16 -5.63714e-18 -1.84371e-20 -8.53018e-24 -4.19402e-28 -2.71406e-32 1.11053e-34 8.49953e-35 2.48463e-35 1.59539e-36 1.31824e-38 2.04617e-41 -4.01222e-41 9.82792e-36 -1.98418e-30 6.14092e-29 -2.1194e-27 5991.5 6000.0 6000.0 6000.0 6000.0 6000.0 6000.0 6000.0 6000.0 6000.0 6000.0 6000.0 6000.0 6000.0 6000.0 6000.0 5996.4 8.2493 0.000559946 5.51707e-08 4.16954e-12 4.86396e-16 6.95119e-20 4.61233e-24 8.15676e-28 -5.86004e-28 2.88014e-22 -2.41939e-13 5991.95 6000.0 6000.0 6000.0 6000.0 6000.0 6000.0 6000.0 6000.0 6000.0 6000.0 6000.0 6000.0 6000.0 6000.0 6000.0 5996.59 8.31123 0.00477663 2.22833e-06 4.29958e-09 7.31573e-10 3.22498e-10 8.98655e-11 1.50437e-11 5.68649e-12 4.00147e-12 1.87859e-12 2.93988e-13 8.75914e-15 -3.8998e-17 -4.24637e-17 -1.0344e-17 -3.54409e-19 -9.92855e-22 -1.20301e-25 -1.75137e-27 2.82084e-23 -1.25045e-12 5989.02 6000.0 6000.0 6000.0 6000.0 6000.0 6000.0 6000.0 6000.0 6000.0 6000.0 6000.0 6000.0 6000.0 6000.0 6000.0 5995.23 11.0216 0.00818958 -0.000113349 -0.000110547 -0.000100313 -8.38417e-05 -6.49735e-05 -4.70707e-05 -3.20715e-05 -2.05996e-05 -1.24243e-05 -6.95345e-06 -3.54409e-06 -1.59736e-06 -6.10494e-07 -1.84841e-07 -3.95683e-08 -5.59405e-09 -4.97464e-10 -2.43509e-11 -4.66982e-13 -1.99212e-15 1.85255e-18 4.4997e-18 4.37974e-18 3.27272e-18 2.51305e-18 2.06991e-18 1.66239e-18 1.2247e-18 8.17469e-19 5.08114e-19 2.98916e-19 1.65521e-19 8.39718e-20 3.56848e-20 1.19389e-20 3.17164e-21 6.86616e-22 1.19931e-22 1.50584e-23 1.25155e-24 8.35025e-26 5.947e-27 -7.28425e-29 -5.43224e-28 -5.14102e-28 -4.03505e-28 -2.77776e-28 -1.50846e-28 -6.34985e-29 -2.1472e-29 -4.7205e-30 -2.80279e-31 -1.75051e-32 -1.16788e-33 -5.99855e-35 -2.28304e-36 -1.11222e-37 -5.33822e-39 -1.14759e-40 6.74519e-41 4.19566e-41 9.03426e-42 -1.16282e-42 -4.28219e-42 -9.67303e-43 -2.81756e-44 2.99193e-46 3.21833e-46 2.23547e-46 8.34375e-47 1.09104e-47 3.1814e-49 1.90849e-51 2.03795e-54 -2.36685e-57 -1.85233e-57 -6.70914e-58 -9.13561e-59 -4.02856e-60 -4.68187e-62 -1.10621e-64 -4.01467e-68 1.46001e-70 1.09181e-70 3.92778e-71 4.04813e-72 7.66303e-74 