/*--------------------------------*- C++ -*----------------------------------*\
| =========                 |                                                 |
| \\      /  F ield         | OpenFOAM: The Open Source CFD Toolbox           |
|  \\    /   O peration     | Version:  2512                                  |
|   \\  /    A nd           | Website:  www.openfoam.com                      |
|    \\/     M anipulation  |                                                 |
\*---------------------------------------------------------------------------*/
FoamFile
{
    version     2.0;
    format      ascii;
    arch        "LSB;label=32;scalar=64";
    class       volScalarField;
    location    "2";
    object      B;
}
// * * * * * * * * * * * * * * * * * * * * * * * * * * * * * * * * * * * * * //

dimensions      [0 -3 0 0 1 0 0];

internalField   nonuniform List<scalar> 
66096
(
1
1
1
1
1
1
1
1
1
1
1
1
1
1
1
1
1
1
1
1
1
1
1
1
1
1
1
1.00001
1.00001
1.00001
1.00001
1.00001
1.00001
1.00001
1.00001
1.00001
1.00001
1.00001
1.00001
1.00001
1.00001
1.00001
1.00001
1.00001
1
0.999981
0.999982
1
0.999996
0.999954
0.999948
0.999978
0.999994
1.00005
0.00566157
-1.68027e-26
-7.0638e-29
-7.74424e-32
-3.51725e-35
-9.42493e-39
-1.75003e-42
-2.47743e-46
-2.84551e-50
-2.77544e-54
-2.38785e-58
-1.88883e-62
-1.46967e-66
-1.25757e-70
-1.31891e-74
-1.67483e-78
-2.31726e-82
-3.21164e-86
-4.29903e-90
-5.49617e-94
-6.69705e-98
-7.79041e-102
-8.66528e-106
-9.23661e-110
-9.44514e-114
-9.27633e-118
-8.74606e-122
-7.90618e-126
-6.82953e-130
-5.59637e-134
-4.29625e-138
-3.01434e-142
-1.83646e-146
-8.41257e-151
-2.62225e-155
-8.36298e-160
-2.81492e-164
-1.03233e-168
-4.18663e-173
-1.85793e-177
-8.76709e-182
-4.26729e-186
-2.08869e-190
-1.00983e-194
-4.76026e-199
-2.17013e-203
-9.52177e-208
-4.00913e-212
-1.61895e-216
-6.26788e-221
-2.32843e-225
-8.30144e-230
-2.8431e-234
-9.3558e-239
-2.96075e-243
-9.02055e-248
-2.64814e-252
-7.50474e-257
-2.05602e-261
-5.45786e-266
-1.40624e-270
-3.52522e-275
-8.6118e-280
-2.05415e-284
-4.79231e-289
-1.09454e-293
-2.45067e-298
-5.38125e-303
-1.14818e-307
0
0
0
0
0
0
0
0
0
0
0
0
0
0
0
0
0
0
0
0
0
0
0
0
0
0
0
0
0
0
0
0
0
0
0
0
0
0
0
0
0
0
0
0
0
0
0
0
0
0
0
0
0
0
0
0
0
0
0
0
0
0
0
0
0
0
0
0
0
0
0
0
0
0
0
0
0
0
0
0
0
0
0
0
0
0
0
0
0
0
0
0
0
0
0
0
-2.41846e-284
-2.04482e-247
-4.8883e-226
-1.04755e-217
-1.54986e-211
-3.26331e-209
-6.20984e-206
-1.36328e-204
-3.36807e-202
-3.42086e-200
-1.61427e-197
-9.14574e-197
-2.42426e-195
-3.79774e-194
-3.19904e-194
-2.31837e-193
-4.74396e-193
-3.76145e-192
-2.28694e-191
-1.23785e-191
-5.88738e-191
-2.79776e-190
-1.58245e-191
-4.36482e-191
-1.41125e-190
-6.64171e-190
-1.3152e-191
-3.63787e-191
-3.43835e-191
-1.69181e-190
-1.29951e-190
-8.00189e-192
-8.54706e-192
-8.58793e-194
-1.60204e-194
-7.97441e-194
-1.04704e-194
-9.27031e-196
-2.62266e-197
-8.57613e-200
-2.68102e-200
-9.52006e-203
-6.32065e-206
-2.37368e-209
-6.40668e-213
-1.38689e-216
-2.53379e-220
-4.03553e-224
-6.03148e-228
-8.4966e-232
-3.7758e-235
-1.92349e-214
-6.19141e-207
-3.79716e-201
-1.36483e-197
-7.52383e-196
-9.18413e-193
-2.77955e-191
-2.51398e-190
-1.65878e-188
-3.13695e-187
-2.34056e-186
-9.22419e-186
-4.12254e-184
-4.6769e-183
-2.07078e-182
-1.26997e-181
-2.10998e-181
-5.27952e-181
-3.09835e-180
-3.81734e-179
-1.73661e-179
-1.28392e-178
-6.12295e-178
-1.76997e-177
-4.13452e-177
-4.62847e-176
-9.95186e-176
-1.25779e-175
-2.78745e-176
-3.00491e-174
-9.8697e-174
-7.12708e-174
-6.24897e-173
-4.26314e-173
-3.61725e-172
-9.3e-173
-3.01541e-171
-6.42943e-171
-1.44905e-170
-2.49372e-170
-1.08908e-169
-1.25287e-169
-1.0351e-168
-3.12925e-168
-2.30495e-168
-3.1065e-168
-3.10293e-167
-7.12858e-167
-3.14337e-167
-1.76629e-166
-1.18791e-165
-1.72229e-165
-5.98659e-166
-4.46148e-165
-1.4461e-164
-2.69824e-164
-1.81526e-163
-3.63165e-163
-2.90277e-163
-7.99633e-163
-7.63066e-163
-8.45326e-162
-4.24664e-162
-1.85014e-161
-1.19699e-160
-6.60889e-161
-3.46771e-160
-7.24883e-160
-5.66221e-160
-6.36409e-160
-4.35217e-159
-9.96719e-159
-1.62086e-158
-4.07891e-158
-1.07889e-157
-1.83756e-157
-4.64526e-157
-4.67519e-157
-3.77843e-156
-4.99139e-156
-1.20893e-155
-1.47854e-155
-5.85401e-156
-8.27861e-155
-6.96946e-155
-3.55944e-154
-9.03367e-154
-9.90296e-154
-5.51805e-154
-4.97772e-153
-9.30272e-153
-2.96764e-152
-1.22138e-152
-2.45339e-152
-1.2756e-151
-3.82643e-152
-9.23903e-151
-1.25846e-150
-1.05935e-150
-1.47457e-150
-1.01995e-149
-7.15158e-149
-6.91939e-149
-1.41248e-148
-3.01718e-148
-1.22731e-147
-3.7911e-148
-1.23084e-147
-3.14904e-147
-2.61498e-147
-9.00323e-147
-8.15735e-146
-4.57781e-146
-2.23527e-145
-1.3141e-145
-5.84877e-145
-1.22639e-144
-3.02862e-144
-9.12956e-144
-1.22666e-143
-1.66967e-143
-1.17638e-143
-9.93836e-143
-1.15147e-142
-4.06423e-142
-4.97502e-142
-2.22085e-141
-2.34313e-141
-1.41848e-140
-2.42735e-140
-3.28841e-140
-3.25253e-140
-2.12483e-139
-2.8273e-139
-1.0032e-138
-2.69893e-138
-5.8556e-139
-8.78841e-139
-1.38261e-138
-1.77977e-137
-2.0786e-137
-1.22911e-136
-6.8796e-137
-3.16327e-136
-4.7278e-136
-2.14086e-135
-4.5063e-135
-8.65421e-135
-8.22018e-135
-2.39598e-134
-5.99454e-134
-1.11128e-134
-2.01981e-133
-4.62431e-133
-6.07284e-133
-1.25309e-132
-1.57289e-132
-3.05487e-132
-5.16942e-132
-2.69372e-132
-1.40794e-131
-2.24576e-131
-6.40051e-131
-1.67805e-131
-6.94014e-131
-6.34753e-131
-1.29057e-130
-1.34063e-130
-1.65726e-130
-2.22602e-130
-4.25152e-130
-2.84751e-130
-3.02023e-131
-5.86974e-131
-3.88764e-131
-2.15303e-131
-8.85478e-132
-4.59198e-132
-6.51113e-134
-9.03536e-135
-1.14446e-136
-4.64941e-141
-2.63602e-145
-1.57153e-149
-7.83495e-154
-3.15794e-158
-1.04437e-162
-2.91595e-167
-6.99825e-172
-1.47154e-176
-2.75334e-181
-4.6179e-186
-7.02925e-191
-9.74555e-196
-1.24237e-200
-4.72853e-205
-4.54681e-198
-1.0503e-192
-8.8145e-188
-3.16322e-181
-4.38165e-171
-2.13939e-152
-4.29572e-138
-9.76479e-133
-1.90253e-128
-4.21548e-121
-7.49032e-117
-5.85996e-115
-1.59812e-108
-5.45487e-106
-1.93849e-103
-9.4001e-102
-1.01208e-99
-1.89539e-97
-8.15924e-96
-3.48299e-95
0.994245
1
1.00001
1.00001
1.00001
1.00001
1.00001
1.00001
1.00001
1.00001
1.00001
1.00001
1
1
1
1
1
1
1
1
1
1
1
1
1
1
1
1
1.00001
1.00001
1.00001
1.00001
1.00001
1.00001
1.00001
1.00001
1.00001
1.00001
1.00001
1.00001
1.00001
1.00001
1.00001
1.00001
1.00001
1.00001
1
1
1
1
1
1
1
1
1
1
1
1
1
1
1
1
1
1
1
1
1
1
1
1
1
1
1
1
1
1
1
1
1
1
1
1
1.00001
1.00001
1.00001
1.00001
1.00001
1.00001
1.00001
1.00001
1.00001
1.00001
1.00001
1.00001
1.00001
1.00001
1.00001
1.00001
1.00001
0.999999
0.999982
1
0.999997
0.999961
0.999948
0.999959
0.999973
1
0.00588299
-1.30199e-26
-2.43131e-28
-6.25533e-31
-7.39984e-34
-5.48124e-37
-2.93959e-40
-1.24199e-43
-4.35697e-47
-1.31487e-50
-3.50029e-54
-8.36999e-58
-1.82445e-61
-3.6656e-65
-6.85465e-69
-1.20184e-72
-1.98923e-76
-3.12385e-80
-4.67664e-84
-6.70212e-88
-9.22301e-92
-1.22297e-95
-1.56646e-99
-1.94394e-103
-2.34217e-107
-2.74704e-111
-3.1413e-115
-3.50798e-119
-3.82883e-123
-4.08086e-127
-4.23944e-131
-4.27164e-135
-4.14242e-139
-3.81132e-143
-3.38845e-147
-2.94758e-151
-2.5115e-155
-2.09822e-159
-1.7193e-163
-1.38286e-167
-1.09158e-171
-8.4594e-176
-6.43326e-180
-4.80183e-184
-3.51561e-188
-2.52437e-192
-1.77731e-196
-1.22595e-200
-8.28341e-205
-5.47742e-209
-3.54405e-213
-2.2419e-217
-1.38647e-221
-8.37722e-226
-4.94524e-230
-2.85249e-234
-1.60723e-238
-8.85039e-243
-4.76234e-247
-2.5057e-251
-1.28907e-255
-6.48904e-260
-3.19633e-264
-1.54151e-268
-7.28329e-273
-3.37152e-277
-1.53033e-281
-6.81141e-286
-2.97524e-290
-1.27545e-294
-5.37018e-299
-2.22081e-303
-8.95025e-308
0
0
0
0
0
0
0
0
0
0
0
0
0
0
0
0
0
0
0
0
0
0
0
0
0
0
0
0
0
0
0
0
0
0
0
0
0
0
0
0
0
0
0
0
0
0
0
0
0
0
0
0
0
0
0
0
0
0
0
0
0
0
0
0
0
0
0
0
0
0
0
0
0
0
0
0
0
0
0
0
0
0
0
0
0
0
0
0
0
0
0
0
-5.09775e-270
-5.52845e-235
-1.32472e-215
-1.05089e-207
-7.43687e-202
-1.29384e-199
-4.36636e-196
-8.53298e-195
-1.10265e-192
-9.56464e-191
-3.50866e-188
-1.82923e-187
-3.48546e-186
-4.93936e-185
-4.28086e-185
-3.56715e-184
-7.72516e-184
-5.54812e-183
-2.90485e-182
-1.42689e-182
-6.00803e-182
-2.49473e-181
-1.33323e-182
-4.31849e-182
-1.50706e-181
-8.11403e-181
-1.42516e-182
-4.57167e-182
-3.42574e-182
-1.66279e-181
-1.31257e-181
-7.46242e-183
-9.55834e-183
-1.5345e-184
-3.50179e-185
-1.36099e-184
-1.65328e-185
-1.58738e-186
-4.21262e-188
-1.58224e-190
-3.68627e-191
-1.81925e-193
-2.75555e-196
-2.41132e-199
-1.48037e-202
-7.04133e-206
-2.73364e-209
-9.01336e-213
-2.57894e-216
-6.54568e-220
-1.54202e-223
-2.98533e-203
-3.23271e-196
-1.22623e-190
-2.69379e-187
-1.16525e-185
-1.1533e-182
-2.73897e-181
-2.38158e-180
-1.2992e-178
-2.18701e-177
-1.45563e-176
-5.20979e-176
-2.15804e-174
-2.09356e-173
-8.87688e-173
-4.84353e-172
-7.28686e-172
-1.78945e-171
-9.78714e-171
-1.15842e-169
-5.00299e-170
-3.73788e-169
-1.45051e-168
-4.33953e-168
-1.03782e-167
-9.66196e-167
-2.03625e-166
-2.41882e-166
-5.76299e-167
-5.5903e-165
-1.66965e-164
-1.17772e-164
-9.9046e-164
-6.17404e-164
-4.95307e-163
-1.21918e-163
-3.97133e-162
-7.61295e-162
-1.92101e-161
-2.81401e-161
-1.288e-160
-1.37869e-160
-1.02596e-159
-2.98007e-159
-2.20327e-159
-2.6022e-159
-2.66302e-158
-5.74321e-158
-2.39192e-158
-1.28093e-157
-8.60834e-157
-1.19906e-156
-3.98046e-157
-3.17718e-156
-8.98539e-156
-1.78065e-155
-1.09457e-154
-2.11447e-154
-1.46315e-154
-3.94873e-154
-4.07834e-154
-4.19718e-153
-2.21262e-153
-8.3044e-153
-5.46255e-152
-2.67921e-152
-1.37901e-151
-2.91431e-151
-2.17996e-151
-2.31434e-151
-1.57433e-150
-3.39742e-150
-5.3124e-150
-1.27346e-149
-3.21854e-149
-5.33481e-149
-1.42934e-148
-1.30913e-148
-1.04532e-147
-1.26711e-147
-3.35219e-147
-3.59601e-147
-1.30042e-147
-1.90414e-146
-1.497e-146
-7.59957e-146
-1.80454e-145
-1.92769e-145
-1.10398e-145
-1.06606e-144
-1.62486e-144
-5.23782e-144
-2.19779e-144
-4.24709e-144
-2.15825e-143
-5.8177e-144
-1.44729e-142
-1.88081e-142
-1.39952e-142
-1.97317e-142
-1.36319e-141
-9.1961e-141
-9.272e-141
-1.70746e-140
-3.44361e-140
-1.42716e-139
-3.95897e-140
-1.18768e-139
-2.99226e-139
-2.43308e-139
-7.92222e-139
-7.20984e-138
-3.99608e-138
-1.96668e-137
-1.31478e-137
-4.54057e-137
-9.29683e-137
-2.28901e-136
-6.56169e-136
-8.06218e-136
-1.19719e-135
-7.49705e-136
-6.48468e-135
-7.69551e-135
-2.73505e-134
-2.83235e-134
-1.33174e-133
-1.21619e-133
-7.31864e-133
-1.23776e-132
-1.51596e-132
-1.41737e-132
-9.62106e-132
-1.18502e-131
-4.04486e-131
-1.04388e-130
-2.19848e-131
-3.00477e-131
-4.90878e-131
-6.43802e-130
-7.15156e-130
-4.29068e-129
-2.22031e-129
-9.87701e-129
-1.4707e-128
-5.84677e-128
-1.25221e-127
-2.40491e-127
-2.18661e-127
-6.05939e-127
-1.32907e-126
-2.34253e-127
-4.7903e-126
-1.03232e-125
-1.28452e-125
-2.44272e-125
-2.93897e-125
-5.61108e-125
-8.95383e-125
-5.0566e-125
-2.47914e-124
-3.85297e-124
-1.11513e-123
-3.19679e-124
-1.12626e-123
-9.88968e-124
-2.22434e-123
-2.12672e-123
-3.08854e-123
-3.77e-123
-7.57547e-123
-5.54135e-123
-5.84132e-124
-1.24676e-123
-8.51196e-124
-5.3446e-124
-2.46585e-124
-1.5629e-124
-2.90279e-126
-5.93853e-127
-1.76279e-128
-2.58062e-132
-5.65777e-136
-1.1221e-139
-1.70698e-143
-2.0348e-147
-1.96812e-151
-1.60087e-155
-1.11824e-159
-6.84682e-164
-3.73502e-168
-1.82958e-172
-8.20705e-177
-7.89706e-176
-1.19166e-174
-2.9574e-171
-5.66933e-167
-5.03622e-162
-1.09424e-154
-1.69633e-142
-1.48204e-137
-1.32786e-129
-9.03564e-126
-3.0837e-122
-7.02729e-116
-8.45056e-112
-5.25663e-108
-1.55907e-105
-6.66332e-102
-7.79357e-100
-1.47039e-97
-3.58813e-96
-2.17667e-94
-2.07687e-92
-3.57449e-91
-6.21667e-91
0.994114
1
1.00001
1.00001
1.00001
1.00001
1
1
1
1
1
1
1
1
1
1
1
1
1
1
1
1
1
1
1
1
1
1
1
1
1
1
1
1
1
1
1
1
1
1
1
1
1
1
1
1
1
1
1.00001
1.00001
1.00001
1.00001
1.00001
1.00001
1
1
1
1
1
1
1
1
1
1
1
1
1
1
1
1
1
1
1
1
1
1
1
1
1
1
1
1
1
1
1
1
1
1
1
1
1
1.00001
1.00001
1.00001
1.00001
1.00001
1.00001
1.00001
1.00001
1
0.999998
1
1
1
1
1
1
1
0.0070451
-7.09774e-26
-2.65009e-28
-8.88338e-31
-1.4829e-33
-1.63566e-36
-1.33645e-39
-8.66391e-43
-4.67096e-46
-2.16916e-49
-8.91256e-53
-3.30637e-56
-1.12591e-59
-3.56269e-63
-1.05821e-66
-2.97135e-70
-7.93385e-74
-2.02191e-77
-4.93309e-81
-1.15486e-84
-2.59706e-88
-5.61828e-92
-1.16981e-95
-2.34683e-99
-4.5376e-103
-8.46382e-107
-1.52334e-110
-2.64756e-114
-4.44666e-118
-7.21856e-122
-1.13369e-125
-1.72283e-129
-2.53565e-133
-3.61505e-137
-4.99769e-141
-6.70073e-145
-8.71901e-149
-1.10179e-152
-1.35229e-156
-1.61341e-160
-1.87143e-164
-2.11209e-168
-2.31955e-172
-2.48083e-176
-2.58421e-180
-2.62338e-184
-2.59693e-188
-2.50697e-192
-2.3619e-196
-2.17178e-200
-1.95047e-204
-1.71096e-208
-1.46703e-212
-1.22953e-216
-1.00781e-220
-8.08321e-225
-6.34381e-229
-4.87505e-233
-3.66824e-237
-2.70446e-241
-1.95357e-245
-1.38354e-249
-9.60597e-254
-6.54158e-258
-4.37137e-262
-2.86623e-266
-1.84518e-270
-1.16615e-274
-7.23991e-279
-4.41494e-283
-2.64602e-287
-1.55843e-291
-9.02381e-296
-5.13898e-300
-2.87801e-304
-1.52205e-308
0
0
0
0
0
0
0
0
0
0
0
0
0
0
0
0
0
0
0
0
0
0
0
0
0
0
0
0
0
0
0
0
0
0
0
0
0
0
0
0
0
0
0
0
0
0
0
0
0
0
0
0
0
0
0
0
0
0
0
0
0
0
0
0
0
0
0
0
0
0
0
0
0
0
0
0
0
0
0
0
0
0
0
0
0
0
0
0
0
-1.14492e-256
-1.82548e-222
-2.04281e-205
-5.05914e-198
-2.15176e-192
-2.59067e-190
-1.10617e-186
-1.80794e-185
-1.36123e-183
-1.0801e-181
-3.13636e-179
-1.55333e-178
-2.18587e-177
-2.98455e-176
-2.56771e-176
-2.11424e-175
-4.71001e-175
-3.20925e-174
-1.50086e-173
-6.78078e-174
-2.59901e-173
-9.65659e-173
-5.10675e-174
-1.86517e-173
-6.27716e-173
-3.69665e-172
-6.02968e-174
-2.29443e-173
-1.38861e-173
-6.86654e-173
-5.76559e-173
-3.13028e-174
-4.71951e-174
-1.00209e-175
-2.72613e-176
-8.91355e-176
-1.05082e-176
-1.12713e-177
-2.9401e-179
-1.26202e-181
-2.57245e-182
-1.59177e-184
-3.49542e-187
-4.52046e-190
-4.10675e-193
-2.88067e-196
-1.64147e-199
-7.90535e-203
-3.28911e-206
-1.20923e-209
-3.99619e-213
-1.0411e-192
-3.9456e-186
-9.32117e-181
-1.25956e-177
-4.322e-176
-3.47322e-173
-6.44227e-172
-5.5253e-171
-2.42369e-169
-3.6433e-168
-2.16098e-167
-7.0207e-167
-2.69062e-165
-2.2312e-164
-9.06697e-164
-4.39627e-163
-6.00028e-163
-1.44791e-162
-7.35158e-162
-8.43506e-161
-3.47887e-161
-2.61281e-160
-8.19981e-160
-2.56203e-159
-6.3108e-159
-4.801e-158
-9.91632e-158
-1.11241e-157
-2.96586e-158
-2.50035e-156
-6.71998e-156
-4.75482e-156
-3.75866e-155
-2.14039e-155
-1.6197e-154
-3.83179e-155
-1.25274e-153
-2.14839e-153
-6.1015e-153
-7.67161e-153
-3.66314e-152
-3.6348e-152
-2.4219e-151
-6.75721e-151
-5.07007e-151
-5.2026e-151
-5.48175e-150
-1.10212e-149
-4.34145e-150
-2.21326e-149
-1.48894e-148
-1.99716e-148
-6.37625e-149
-5.40503e-148
-1.3296e-147
-2.80999e-147
-1.58258e-146
-2.9515e-146
-1.75682e-146
-4.65981e-146
-5.28085e-146
-4.98696e-145
-2.77747e-145
-8.8743e-145
-5.94632e-144
-2.58491e-144
-1.3103e-143
-2.79657e-143
-2.00134e-143
-2.03448e-143
-1.36656e-142
-2.77102e-142
-4.1657e-142
-9.46433e-142
-2.28484e-141
-3.69002e-141
-1.06089e-140
-8.79497e-141
-6.90441e-140
-7.66069e-140
-2.22866e-139
-2.08567e-139
-6.93464e-140
-1.04838e-138
-7.66557e-139
-3.86921e-138
-8.58972e-138
-8.96118e-138
-5.31477e-138
-5.4672e-137
-6.7645e-137
-2.20862e-136
-9.48728e-137
-1.76684e-136
-8.76999e-136
-2.13568e-136
-5.39874e-135
-6.70961e-135
-4.42691e-135
-6.45776e-135
-4.36759e-134
-2.83397e-133
-2.96891e-133
-4.93607e-133
-9.43562e-133
-3.96856e-132
-9.93462e-133
-2.73439e-132
-6.7835e-132
-5.41647e-132
-1.669e-131
-1.52177e-130
-8.38949e-131
-4.15482e-130
-3.15811e-130
-8.58103e-130
-1.68477e-129
-4.19335e-129
-1.12746e-128
-1.26791e-128
-2.07873e-128
-1.1562e-128
-1.01307e-127
-1.24701e-127
-4.42285e-127
-3.95815e-127
-1.916e-126
-1.51614e-126
-9.03726e-126
-1.50768e-125
-1.67336e-125
-1.49133e-125
-1.04458e-124
-1.20385e-124
-3.91382e-124
-9.67345e-124
-1.9838e-124
-2.47846e-124
-4.24213e-124
-5.60501e-123
-5.92802e-123
-3.62805e-122
-1.73776e-122
-7.48101e-122
-1.10952e-121
-3.86092e-121
-8.44687e-121
-1.61711e-120
-1.4154e-120
-3.70605e-120
-7.12469e-120
-1.20558e-120
-2.78527e-119
-5.65416e-119
-6.63217e-119
-1.15579e-118
-1.33885e-118
-2.50561e-118
-3.77173e-118
-2.33365e-118
-1.06663e-117
-1.61803e-117
-4.78872e-117
-1.51459e-117
-4.4542e-117
-3.75217e-117
-9.50697e-117
-8.22283e-117
-1.41931e-116
-1.55282e-116
-3.29525e-116
-2.63101e-116
-2.77249e-117
-6.42709e-117
-4.4991e-117
-3.19791e-117
-1.6392e-117
-1.25531e-117
-2.99452e-119
-8.63524e-120
-5.00637e-121
-6.44922e-124
-1.73196e-127
-4.65509e-131
-1.05053e-134
-1.94437e-138
-2.99172e-142
-3.92959e-146
-4.47952e-150
-4.51506e-154
-5.05063e-156
-1.92962e-155
-2.12371e-153
-7.21073e-149
-9.71774e-145
-1.16131e-139
-3.93502e-136
-4.79275e-132
-1.78084e-128
-1.54267e-124
-3.62905e-125
-8.94845e-120
-5.70822e-117
-1.19616e-112
-3.52517e-108
-5.45353e-105
-8.00419e-101
-1.52068e-99
-3.19895e-96
-1.85842e-94
-2.26093e-92
-3.24796e-91
-1.25919e-89
-7.12706e-88
-6.18019e-87
-6.43547e-87
0.992963
1
1.00001
1.00001
1.00001
1.00001
1.00001
1
1
1
1
1
1
1
1
1
1
1
1
1
1
1
1
1
1
1
1
1
1
1
1
1
1
1
1
1
1
1
1
1
1
1
1
1
1
1
1
1
1
1
1
1
1
1
1
1
1
1
1
1
1
1
1
1
1
1
1
1
1
1
1
1
1
1
1
1
1
1
1
1
1
1
1
1
1
1
1
1
1
1
1
1
1
1
1.00001
1.00001
1.00001
1.00001
1.00001
1.00001
1
1
0.99998
0.999969
0.999989
0.999997
0.999996
1
0.00815155
3.01003e-26
6.13032e-49
-1.76828e-31
-7.21868e-34
-1.52394e-36
-2.16606e-39
-2.33015e-42
-2.02251e-45
-1.47466e-48
-9.28589e-52
-5.15173e-55
-2.55913e-58
-1.1523e-61
-4.75354e-65
-1.81131e-68
-6.42306e-72
-2.13158e-75
-6.65478e-79
-1.96322e-82
-5.49072e-86
-1.46089e-89
-3.70633e-93
-8.99021e-97
-2.08843e-100
-4.65614e-104
-9.9751e-108
-2.05677e-111
-4.08757e-115
-7.83611e-119
-1.45114e-122
-2.59752e-126
-4.49991e-130
-7.54851e-134
-1.22757e-137
-1.93613e-141
-2.96425e-145
-4.40926e-149
-6.37408e-153
-8.96395e-157
-1.22664e-160
-1.63487e-164
-2.12265e-168
-2.68718e-172
-3.31745e-176
-3.99665e-180
-4.70173e-184
-5.40174e-188
-6.06555e-192
-6.65729e-196
-7.14739e-200
-7.50646e-204
-7.71755e-208
-7.76752e-212
-7.65723e-216
-7.39727e-220
-7.00268e-224
-6.50042e-228
-5.91665e-232
-5.28383e-236
-4.62939e-240
-3.98175e-244
-3.36167e-248
-2.78711e-252
-2.27015e-256
-1.81637e-260
-1.42843e-264
-1.10397e-268
-8.38976e-273
-6.26865e-277
-4.60762e-281
-3.3311e-285
-2.36959e-289
-1.65918e-293
-1.14334e-297
-7.75806e-302
-5.18246e-306
0
0
0
0
0
0
0
0
0
0
0
0
0
0
0
0
0
0
0
0
0
0
0
0
0
0
0
0
0
0
0
0
0
0
0
0
0
0
0
0
0
0
0
0
0
0
0
0
0
0
0
0
0
0
0
0
0
0
0
0
0
0
0
0
0
0
0
0
0
0
0
0
0
0
0
0
0
0
0
0
0
0
0
0
0
0
0
0
-3.10921e-243
-1.39134e-210
-2.02518e-195
-1.75153e-188
-4.61923e-183
-3.66348e-181
-1.61918e-177
-2.2105e-176
-1.01431e-174
-7.71349e-173
-1.78997e-170
-8.58632e-170
-8.89618e-169
-1.19008e-167
-1.01825e-167
-7.68016e-167
-1.73021e-166
-1.13948e-165
-4.81322e-165
-2.01296e-165
-7.13444e-165
-2.39752e-164
-1.30531e-165
-5.13625e-165
-1.60375e-164
-1.00235e-163
-1.5551e-165
-7.06229e-165
-3.50469e-165
-1.79089e-164
-1.6377e-164
-8.61638e-166
-1.51232e-165
-3.90017e-167
-1.24769e-167
-3.55437e-167
-4.17209e-168
-5.09509e-169
-1.34398e-170
-6.51813e-173
-1.28659e-173
-9.48215e-176
-2.65219e-178
-4.42284e-181
-5.19425e-184
-4.70826e-187
-3.46206e-190
-2.14781e-193
-1.14903e-196
-5.42207e-200
-2.28801e-203
-1.49999e-182
-2.02533e-176
-2.96456e-171
-2.47177e-168
-6.79968e-167
-4.44277e-164
-6.40277e-163
-5.56214e-162
-1.90618e-160
-2.56995e-159
-1.35644e-158
-3.99772e-158
-1.41429e-156
-1.00207e-155
-3.90556e-155
-1.68066e-154
-2.08639e-154
-4.95585e-154
-2.32486e-153
-2.61493e-152
-1.03561e-152
-7.76099e-152
-1.96172e-151
-6.45382e-151
-1.64625e-150
-1.00499e-149
-2.03432e-149
-2.16619e-149
-6.74498e-150
-4.75748e-148
-1.13899e-147
-8.31933e-148
-6.04704e-147
-3.14816e-147
-2.23951e-146
-5.11452e-147
-1.67608e-145
-2.55935e-145
-8.22031e-145
-8.97618e-145
-4.43704e-144
-4.06355e-144
-2.41056e-143
-6.45685e-143
-4.96908e-143
-4.40046e-143
-4.80217e-142
-8.92089e-142
-3.33073e-142
-1.61353e-141
-1.08852e-140
-1.40956e-140
-4.36127e-141
-3.88791e-140
-8.29459e-140
-1.87634e-139
-9.71677e-139
-1.74841e-138
-8.89776e-139
-2.3281e-138
-2.93104e-138
-2.51149e-137
-1.4888e-137
-3.99642e-137
-2.73261e-136
-1.05082e-136
-5.26714e-136
-1.13431e-135
-7.75619e-136
-7.65857e-136
-5.03759e-135
-9.59001e-135
-1.38651e-134
-2.96354e-134
-6.83186e-134
-1.07657e-133
-3.36594e-133
-2.50894e-133
-1.92741e-132
-1.95303e-132
-6.2867e-132
-5.10593e-132
-1.57419e-132
-2.44468e-131
-1.65607e-131
-8.31394e-131
-1.72485e-130
-1.76128e-130
-1.09188e-130
-1.18742e-129
-1.18843e-129
-3.93827e-129
-1.73832e-129
-3.1257e-129
-1.51521e-128
-3.3481e-129
-8.48628e-128
-1.01069e-127
-5.94501e-128
-9.17627e-128
-5.93829e-127
-3.70496e-126
-4.01916e-126
-6.04172e-126
-1.09914e-125
-4.67001e-125
-1.06196e-125
-2.65935e-125
-6.49313e-125
-5.1076e-125
-1.491e-124
-1.35785e-123
-7.51113e-124
-3.72947e-123
-3.2209e-123
-7.01432e-123
-1.29187e-122
-3.30004e-122
-8.20047e-122
-8.44858e-122
-1.54579e-121
-7.64515e-122
-6.70441e-121
-8.67734e-121
-3.0406e-120
-2.41032e-120
-1.17002e-119
-8.03428e-120
-4.72642e-119
-7.76394e-119
-7.83479e-119
-6.71648e-119
-4.81341e-118
-5.26219e-118
-1.60839e-117
-3.79962e-117
-7.6124e-118
-8.74326e-118
-1.58859e-117
-2.07796e-116
-2.09537e-116
-1.31365e-115
-5.83998e-116
-2.42974e-115
-3.58328e-115
-1.08918e-114
-2.44495e-114
-4.64592e-114
-3.93807e-114
-9.68654e-114
-1.63067e-113
-2.67812e-114
-7.00894e-113
-1.34152e-112
-1.4752e-112
-2.34142e-112
-2.62376e-112
-4.79863e-112
-6.81446e-112
-4.67068e-112
-1.97635e-111
-2.92875e-111
-8.94321e-111
-3.13745e-111
-7.55856e-111
-6.0965e-111
-1.7729e-110
-1.3623e-110
-2.82472e-110
-2.73148e-110
-6.14545e-110
-5.34832e-110
-5.67677e-111
-1.40932e-110
-1.00596e-110
-8.07906e-111
-4.55389e-111
-4.16251e-111
-1.25355e-112
-4.88517e-113
-4.86244e-114
-1.02722e-115
-5.54226e-119
-4.04379e-122
-2.09868e-125
-7.77868e-129
-2.20037e-132
-1.80059e-134
-7.82489e-135
-7.37759e-132
-5.03855e-132
-1.05825e-130
-1.64776e-129
-3.19243e-127
-1.65138e-126
-1.49709e-122
-1.10046e-121
-1.14489e-118
-1.5827e-117
-3.97875e-115
-3.93716e-116
-8.68664e-112
-1.57732e-109
-5.36694e-105
-1.36635e-101
-2.27262e-97
-4.84926e-95
-3.93945e-94
-5.1947e-91
-1.66827e-89
-1.43096e-87
-1.32217e-86
-3.51786e-85
-1.31785e-83
-6.60106e-83
-4.96479e-83
0.991874
1
1.00001
1.00001
1.00001
1.00001
1.00001
1.00001
1
1
1
1
1
1
1
1
1
1
1
1
1
1
1
1
1
1
1
1
1
1
1
1
1
1
1
1
1
1
1
1
1
1
1
1
1
1
1
1
1
1
1
1
1
1
1
1
1
1
1
1
1
1
1
1
1
1
1
1
1
1
1
1
1
1
1
1
1
1
1
1
1
1
1
1
1
1
1
1
1
1
1
1
1
1
1
1
1.00001
1.00001
1.00001
1.00001
1.00001
1
0.999984
0.999947
0.999947
0.999982
0.999994
1
0.00917146
-3.32248e-26
-6.82508e-30
-3.9197e-31
-2.09746e-33
-5.50679e-36
-9.47523e-39
-1.20962e-41
-1.22828e-44
-1.03818e-47
-7.54083e-51
-4.81619e-54
-2.75411e-57
-1.42924e-60
-6.80772e-64
-3.0017e-67
-1.23452e-70
-4.76232e-74
-1.73201e-77
-5.96431e-81
-1.95071e-84
-6.07961e-88
-1.80939e-91
-5.15516e-95
-1.40814e-98
-3.69486e-102
-9.3228e-106
-2.26521e-109
-5.30692e-113
-1.19958e-116
-2.61949e-120
-5.52865e-124
-1.12909e-127
-2.2321e-131
-4.2759e-135
-7.93972e-139
-1.43022e-142
-2.5013e-146
-4.24812e-150
-7.01303e-154
-1.1256e-157
-1.75804e-161
-2.67252e-165
-3.95775e-169
-5.71063e-173
-8.03392e-177
-1.10275e-180
-1.47704e-184
-1.93215e-188
-2.46873e-192
-3.08351e-196
-3.76532e-200
-4.49875e-204
-5.25953e-208
-6.02045e-212
-6.75145e-216
-7.41768e-220
-7.99039e-224
-8.43929e-228
-8.74576e-232
-8.89285e-236
-8.87856e-240
-8.70343e-244
-8.38114e-248
-7.93219e-252
-7.37793e-256
-6.74853e-260
-6.06989e-264
-5.37183e-268
-4.67723e-272
-4.00907e-276
-3.38247e-280
-2.81019e-284
-2.29997e-288
-1.85408e-292
-1.47299e-296
-1.15309e-300
-8.89924e-305
-6.24286e-309
0
0
0
0
0
0
0
0
0
0
0
0
0
0
0
0
0
0
0
0
0
0
0
0
0
0
0
0
0
0
0
0
0
0
0
0
0
0
0
0
0
0
0
0
0
0
0
0
0
0
0
0
0
0
0
0
0
0
0
0
0
0
0
0
0
0
0
0
0
0
0
0
0
0
0
0
0
0
0
0
0
0
0
0
0
0
-6.06493e-230
-1.53614e-199
-1.42181e-185
-4.67957e-179
-7.78679e-174
-3.95568e-172
-1.65499e-168
-1.91347e-167
-5.40617e-166
-4.03819e-164
-7.52855e-162
-3.51865e-161
-2.67979e-160
-3.56196e-159
-3.02567e-159
-1.99521e-158
-4.48573e-158
-2.88486e-157
-1.10745e-156
-4.29229e-157
-1.42561e-156
-4.36718e-156
-2.53382e-157
-1.03197e-156
-2.94375e-156
-1.89654e-155
-2.84594e-157
-1.54669e-156
-6.35788e-157
-3.41089e-156
-3.42277e-156
-1.7525e-157
-3.55526e-157
-1.06477e-158
-3.97287e-159
-1.00604e-158
-1.19304e-159
-1.67685e-160
-4.56153e-162
-2.47764e-164
-5.1049e-165
-4.34608e-167
-1.45689e-169
-2.93646e-172
-4.17917e-175
-4.594e-178
-4.09647e-181
-3.08067e-184
-1.9967e-187
-1.14079e-190
-5.8191e-194
-1.13907e-172
-5.57413e-167
-4.9853e-162
-2.56848e-159
-5.72538e-158
-3.04628e-155
-3.39186e-154
-3.06349e-153
-7.97262e-152
-9.6931e-151
-4.54297e-150
-1.21364e-149
-3.95238e-148
-2.39159e-147
-8.94635e-147
-3.41218e-146
-3.86655e-146
-9.06383e-146
-3.90465e-145
-4.36433e-144
-1.66725e-144
-1.23536e-143
-2.51234e-143
-8.75708e-143
-2.32407e-142
-1.11757e-141
-2.21714e-141
-2.25285e-141
-8.5494e-142
-4.85381e-140
-1.02529e-139
-7.96132e-140
-5.20345e-139
-2.48147e-139
-1.65179e-138
-3.65926e-139
-1.19986e-137
-1.6244e-137
-5.92625e-137
-5.70603e-137
-2.8881e-136
-2.42913e-136
-1.27628e-135
-3.27887e-135
-2.61394e-135
-1.98959e-135
-2.26442e-134
-3.84329e-134
-1.36447e-134
-6.26276e-134
-4.2441e-133
-5.32008e-133
-1.60844e-133
-1.49135e-132
-2.75164e-132
-6.68405e-132
-3.19675e-131
-5.54349e-131
-2.39852e-131
-6.21699e-131
-8.78878e-131
-6.76716e-130
-4.30484e-130
-9.56482e-130
-6.68449e-129
-2.27067e-129
-1.13011e-128
-2.45387e-128
-1.60075e-128
-1.55783e-128
-9.94363e-128
-1.78096e-127
-2.47858e-127
-4.93027e-127
-1.08505e-126
-1.67138e-126
-5.76334e-126
-3.83252e-126
-2.86812e-125
-2.64928e-125
-9.48739e-125
-6.65385e-125
-1.92236e-125
-3.04339e-124
-1.90343e-124
-9.50694e-124
-1.84312e-123
-1.84619e-123
-1.21009e-123
-1.37649e-122
-1.11163e-122
-3.745e-122
-1.70405e-122
-2.96446e-122
-1.40425e-121
-2.82376e-122
-7.08734e-121
-8.10339e-121
-4.28536e-121
-7.15206e-121
-4.32152e-120
-2.5914e-119
-2.89997e-119
-3.95032e-119
-6.86819e-119
-2.93205e-118
-6.11296e-119
-1.3785e-118
-3.30886e-118
-2.57415e-118
-7.12845e-118
-6.46067e-117
-3.62479e-117
-1.7932e-116
-1.75743e-116
-3.13878e-116
-5.28554e-116
-1.40792e-115
-3.18554e-115
-3.00959e-115
-6.2005e-115
-2.73553e-115
-2.36934e-114
-3.27299e-114
-1.12036e-113
-8.08099e-114
-3.82221e-113
-2.28189e-113
-1.31992e-112
-2.13116e-112
-1.96426e-112
-1.63568e-112
-1.18703e-111
-1.25271e-111
-3.53968e-111
-7.97298e-111
-1.56601e-111
-1.6696e-111
-3.27467e-111
-4.13681e-110
-3.98362e-110
-2.5659e-109
-1.06392e-109
-4.26273e-109
-6.23403e-109
-1.65333e-108
-3.82629e-108
-7.18054e-108
-5.93185e-108
-1.36352e-107
-2.00716e-107
-3.2409e-108
-9.61256e-107
-1.73648e-106
-1.7804e-106
-2.55725e-106
-2.78689e-106
-4.96533e-106
-6.65193e-106
-5.11063e-106
-1.98578e-105
-2.87484e-105
-9.16174e-105
-3.56876e-105
-6.92934e-105
-5.3345e-105
-1.81405e-104
-1.21626e-104
-3.05863e-104
-2.57806e-104
-6.17489e-104
-5.84481e-104
-6.30786e-105
-1.64852e-104
-1.19298e-104
-1.07984e-104
-6.61917e-105
-7.1222e-105
-2.66433e-106
-1.34367e-106
-2.06599e-107
-1.6345e-108
-2.5741e-111
-3.06918e-114
-2.10343e-117
-1.0087e-120
-1.04094e-123
-1.11307e-120
-1.94628e-122
-3.4408e-119
-9.56428e-121
-3.72614e-118
-6.53316e-119
-2.37647e-115
-7.86897e-115
-3.19256e-113
-6.26487e-112
-6.34375e-110
-2.1303e-109
-1.9479e-107
-4.31046e-108
-9.27129e-105
-6.07508e-102
-1.68178e-98
-9.0229e-95
-1.30406e-91
-9.86304e-90
-4.44981e-89
-4.10116e-86
-7.72492e-85
-4.97153e-83
-3.16133e-82
-6.04783e-81
-1.62412e-79
-5.11079e-79
-3.09952e-79
0.990863
1
1.00001
1.00001
1.00001
1.00001
1.00001
1.00001
1
1
1
1
1
1
1
1
1
1
1
1
1
1
1
1
1
1
1
1
1
1
1
1
1
1
1
1
1
1
1
1
1
1
1
1
1
1
1
1
1
1
1
1
1
1
1
1
1
1
1
1
1
1
1
1
1
1
1
1
1
1
1
1
1
1
1
1
1
1
1
1
1
1
1
1
1
1
1
1
1
1
1
1
1
1
1
1
1
1
1.00001
1.00001
1.00001
1
1
0.999957
0.999947
0.999961
0.999993
1
0.0101247
-3.29693e-26
-1.55081e-28
-5.12333e-31
-1.01228e-33
-1.46119e-36
-1.76883e-39
-1.92249e-42
-1.89154e-45
-1.66348e-48
-1.29747e-51
-8.98675e-55
-5.57037e-58
-3.11849e-61
-1.59241e-64
-7.47929e-68
-3.25761e-71
-1.32434e-74
-5.05668e-78
-1.82357e-81
-6.23925e-85
-2.03516e-88
-6.35309e-92
-1.90619e-95
-5.51583e-99
-1.54525e-102
-4.20312e-106
-1.11335e-109
-2.87921e-113
-7.27945e-117
-1.80198e-120
-4.36807e-124
-1.03738e-127
-2.41272e-131
-5.49359e-135
-1.2231e-138
-2.66083e-142
-5.65256e-146
-1.17133e-149
-2.36723e-153
-4.66223e-157
-8.94931e-161
-1.67349e-164
-3.04965e-168
-5.41451e-172
-9.36933e-176
-1.58081e-179
-2.60041e-183
-4.17343e-187
-6.53476e-191
-9.99005e-195
-1.49113e-198
-2.17471e-202
-3.09908e-206
-4.31778e-210
-5.88477e-214
-7.84602e-218
-1.02409e-221
-1.30859e-225
-1.63816e-229
-2.00905e-233
-2.41555e-237
-2.84722e-241
-3.29174e-245
-3.73461e-249
-4.15775e-253
-4.54518e-257
-4.87859e-261
-5.14479e-265
-5.33009e-269
-5.42834e-273
-5.43402e-277
-5.34917e-281
-5.1802e-285
-4.93457e-289
-4.62648e-293
-4.26868e-297
-3.8782e-301
-3.46893e-305
-2.57098e-309
0
0
0
0
0
0
0
0
0
0
0
0
0
0
0
0
0
0
0
0
0
0
0
0
0
0
0
0
0
0
0
0
0
0
0
0
0
0
0
0
0
0
0
0
0
0
0
0
0
0
0
0
0
0
0
0
0
0
0
0
0
0
0
0
0
0
0
0
0
0
0
0
0
0
0
0
0
0
0
0
0
0
0
0
0
-6.57909e-217
-7.87288e-189
-7.51534e-176
-9.97431e-170
-1.06295e-164
-3.37194e-163
-1.29884e-159
-1.28101e-158
-2.23344e-157
-1.64905e-155
-2.4795e-153
-1.13567e-152
-6.32166e-152
-8.40765e-151
-7.07795e-151
-4.00803e-150
-8.88e-150
-5.58739e-149
-1.95394e-148
-7.01244e-149
-2.20578e-148
-6.19837e-148
-3.9732e-149
-1.59609e-148
-4.20496e-148
-2.70702e-147
-3.96966e-149
-2.58573e-148
-8.87846e-149
-5.06989e-148
-5.61385e-148
-2.78879e-149
-6.49486e-149
-2.20788e-150
-9.56315e-151
-2.17257e-150
-2.62322e-151
-4.2729e-152
-1.21442e-153
-7.33853e-156
-1.65969e-156
-1.59241e-158
-6.17034e-161
-1.44733e-163
-2.40324e-166
-3.08553e-169
-3.21493e-172
-2.82545e-175
-2.14003e-178
-1.42863e-181
-8.51018e-185
-5.19421e-163
-9.42543e-158
-5.03081e-153
-1.60237e-150
-2.92588e-149
-1.27016e-146
-1.08595e-145
-1.04506e-144
-2.01107e-143
-2.21948e-142
-9.20855e-142
-2.22779e-141
-6.65567e-140
-3.43774e-139
-1.23519e-138
-4.16947e-138
-4.33359e-138
-1.00644e-137
-3.94967e-137
-4.45832e-136
-1.6475e-136
-1.19453e-135
-1.96146e-135
-7.26301e-135
-2.01299e-134
-7.48306e-134
-1.45519e-133
-1.41853e-133
-6.82902e-134
-3.0075e-132
-5.55627e-132
-4.7198e-132
-2.71556e-131
-1.19039e-131
-7.37025e-131
-1.59198e-131
-5.21016e-130
-6.23173e-130
-2.59246e-129