/*--------------------------------*- C++ -*----------------------------------*\
| =========                 |                                                 |
| \\      /  F ield         | OpenFOAM: The Open Source CFD Toolbox           |
|  \\    /   O peration     | Version:  2512                                  |
|   \\  /    A nd           | Website:  www.openfoam.com                      |
|    \\/     M anipulation  |                                                 |
\*---------------------------------------------------------------------------*/
FoamFile
{
    version     2.0;
    format      ascii;
    arch        "LSB;label=32;scalar=64";
    class       volVectorField;
    location    "2";
    object      U;
}
// * * * * * * * * * * * * * * * * * * * * * * * * * * * * * * * * * * * * * //

dimensions      [0 1 -1 0 0 0 0];

internalField   nonuniform List<vector> 
66096
(
(0.00109133 0.000174756 0)
(0.000917561 0.000150048 0)
(0.00067002 7.77863e-05 0)
(0.000489373 4.10542e-05 0)
(0.00037732 2.38217e-05 0)
(0.000305161 1.44382e-05 0)
(0.000255978 9.04569e-06 0)
(0.0002213 5.9136e-06 0)
(0.000196232 4.02848e-06 0)
(0.000177749 2.83176e-06 0)
(0.000163955 2.03036e-06 0)
(0.000153629 1.46742e-06 0)
(0.000145946 1.05566e-06 0)
(0.000140326 7.44736e-07 0)
(0.00013634 5.04623e-07 0)
(0.000133664 3.16748e-07 0)
(0.000132035 1.69262e-07 0)
(0.000131239 5.44094e-08 0)
(0.000131091 -3.29856e-08 0)
(0.000131431 -9.63734e-08 0)
(0.000132109 -1.38031e-07 0)
(0.000132989 -1.59359e-07 0)
(0.000133938 -1.61249e-07 0)
(0.00013483 -1.44152e-07 0)
(0.000135539 -1.08288e-07 0)
(0.000135942 -5.36656e-08 0)
(0.000135916 1.96792e-08 0)
(0.000135341 1.1161e-07 0)
(0.000134098 2.21754e-07 0)
(0.000132076 3.49435e-07 0)
(0.000129168 4.93485e-07 0)
(0.000125281 6.52049e-07 0)
(0.000120337 8.22426e-07 0)
(0.000114279 1.00087e-06 0)
(0.000107078 1.18241e-06 0)
(9.87419e-05 1.36071e-06 0)
(8.93187e-05 1.5279e-06 0)
(7.89111e-05 1.67462e-06 0)
(6.7677e-05 1.79021e-06 0)
(5.58382e-05 1.86284e-06 0)
(4.3683e-05 1.88028e-06 0)
(3.15639e-05 1.83048e-06 0)
(1.9891e-05 1.70304e-06 0)
(9.11642e-06 1.49043e-06 0)
(-2.89173e-07 1.19017e-06 0)
(-7.8711e-06 8.06724e-07 0)
(-1.32336e-05 3.54367e-07 0)
(-1.61006e-05 -1.40154e-07 0)
(-1.63809e-05 -6.33768e-07 0)
(-1.42532e-05 -1.0614e-06 0)
(-1.02502e-05 -1.32861e-06 0)
(-5.30755e-06 -1.31036e-06 0)
(-8.02128e-07 -9.14678e-07 0)
(1.90881e-09 3.12512e-09 0)
(1.39649e-09 8.3559e-10 0)
(1.06763e-09 2.00496e-10 0)
(7.14016e-10 4.27743e-11 0)
(5.73827e-10 1.3337e-11 0)
(5.13453e-10 4.43001e-12 0)
(4.81184e-10 4.78301e-13 0)
(4.63777e-10 -1.07799e-12 0)
(4.55522e-10 -1.61241e-12 0)
(4.52851e-10 -1.78538e-12 0)
(4.53694e-10 -1.82722e-12 0)
(4.56848e-10 -1.81411e-12 0)
(4.6155e-10 -1.77415e-12 0)
(4.67271e-10 -1.71796e-12 0)
(4.73627e-10 -1.64979e-12 0)
(4.80328e-10 -1.57166e-12 0)
(4.87149e-10 -1.48524e-12 0)
(4.93917e-10 -1.39216e-12 0)
(5.00498e-10 -1.29421e-12 0)
(5.06788e-10 -1.19309e-12 0)
(5.12713e-10 -1.09053e-12 0)
(5.18216e-10 -9.88111e-13 0)
(5.23264e-10 -8.8719e-13 0)
(5.27836e-10 -7.88973e-13 0)
(5.31923e-10 -6.94434e-13 0)
(5.35528e-10 -6.04366e-13 0)
(5.38662e-10 -5.19361e-13 0)
(5.41342e-10 -4.39849e-13 0)
(5.43589e-10 -3.66086e-13 0)
(5.45428e-10 -2.98226e-13 0)
(5.46888e-10 -2.36289e-13 0)
(5.47999e-10 -1.802e-13 0)
(5.48789e-10 -1.29806e-13 0)
(5.4929e-10 -8.48969e-14 0)
(5.49532e-10 -4.52063e-14 0)
(5.49542e-10 -1.04403e-14 0)
(5.49349e-10 1.97267e-14 0)
(5.48979e-10 4.56305e-14 0)
(5.48456e-10 6.7609e-14 0)
(5.47804e-10 8.60117e-14 0)
(5.47042e-10 1.01171e-13 0)
(5.46191e-10 1.13419e-13 0)
(5.45268e-10 1.23064e-13 0)
(5.44289e-10 1.30408e-13 0)
(5.43267e-10 1.35726e-13 0)
(5.42215e-10 1.39282e-13 0)
(5.41143e-10 1.4131e-13 0)
(5.40062e-10 1.42032e-13 0)
(5.38979e-10 1.4165e-13 0)
(5.37902e-10 1.40342e-13 0)
(5.36835e-10 1.38272e-13 0)
(5.35785e-10 1.35581e-13 0)
(5.34754e-10 1.32398e-13 0)
(5.33747e-10 1.28834e-13 0)
(5.32765e-10 1.24987e-13 0)
(5.31811e-10 1.20938e-13 0)
(5.30885e-10 1.16759e-13 0)
(5.2999e-10 1.12514e-13 0)
(5.29125e-10 1.08251e-13 0)
(5.2829e-10 1.04013e-13 0)
(5.27486e-10 9.98333e-14 0)
(5.26712e-10 9.5741e-14 0)
(5.25967e-10 9.17556e-14 0)
(5.25251e-10 8.78956e-14 0)
(5.24564e-10 8.41701e-14 0)
(5.23903e-10 8.0588e-14 0)
(5.23269e-10 7.71558e-14 0)
(5.22661e-10 7.3874e-14 0)
(5.22076e-10 7.07439e-14 0)
(5.21516e-10 6.77625e-14 0)
(5.20977e-10 6.49278e-14 0)
(5.2046e-10 6.22345e-14 0)
(5.19963e-10 5.96787e-14 0)
(5.19486e-10 5.72532e-14 0)
(5.19027e-10 5.49523e-14 0)
(5.18586e-10 5.27709e-14 0)
(5.18162e-10 5.07014e-14 0)
(5.17754e-10 4.87383e-14 0)
(5.17361e-10 4.68745e-14 0)
(5.16983e-10 4.51046e-14 0)
(5.16619e-10 4.3422e-14 0)
(5.16268e-10 4.1822e-14 0)
(5.1593e-10 4.02979e-14 0)
(5.15604e-10 3.88451e-14 0)
(5.1529e-10 3.74596e-14 0)
(5.14986e-10 3.61363e-14 0)
(5.14694e-10 3.48715e-14 0)
(5.14411e-10 3.3661e-14 0)
(5.14139e-10 3.25016e-14 0)
(5.13875e-10 3.13897e-14 0)
(5.13621e-10 3.03229e-14 0)
(5.13375e-10 2.92976e-14 0)
(5.13138e-10 2.83116e-14 0)
(5.12909e-10 2.73632e-14 0)
(5.12687e-10 2.64497e-14 0)
(5.12473e-10 2.55696e-14 0)
(5.12266e-10 2.47208e-14 0)
(5.12066e-10 2.39021e-14 0)
(5.11872e-10 2.31116e-14 0)
(5.11685e-10 2.23485e-14 0)
(5.11504e-10 2.1611e-14 0)
(5.1133e-10 2.0898e-14 0)
(5.1116e-10 2.02091e-14 0)
(5.10997e-10 1.95427e-14 0)
(5.10839e-10 1.88984e-14 0)
(5.10686e-10 1.8275e-14 0)
(5.10538e-10 1.76721e-14 0)
(5.10396e-10 1.70885e-14 0)
(5.10258e-10 1.65241e-14 0)
(5.10124e-10 1.59777e-14 0)
(5.09995e-10 1.54488e-14 0)
(5.0987e-10 1.49372e-14 0)
(5.09749e-10 1.4442e-14 0)
(5.09633e-10 1.39629e-14 0)
(5.0952e-10 1.34991e-14 0)
(5.09411e-10 1.30505e-14 0)
(5.09306e-10 1.26164e-14 0)
(5.09204e-10 1.21965e-14 0)
(5.09105e-10 1.179e-14 0)
(5.0901e-10 1.13967e-14 0)
(5.08918e-10 1.10164e-14 0)
(5.08829e-10 1.06484e-14 0)
(5.08743e-10 1.02926e-14 0)
(5.0866e-10 9.9483e-15 0)
(5.0858e-10 9.61542e-15 0)
(5.08502e-10 9.29348e-15 0)
(5.08427e-10 8.98241e-15 0)
(5.08354e-10 8.68122e-15 0)
(5.08284e-10 8.3893e-15 0)
(5.08216e-10 8.10802e-15 0)
(5.08151e-10 7.83542e-15 0)
(5.08088e-10 7.57253e-15 0)
(5.08027e-10 7.31771e-15 0)
(5.07968e-10 7.07197e-15 0)
(5.0791e-10 6.83388e-15 0)
(5.07855e-10 6.60459e-15 0)
(5.07802e-10 6.382e-15 0)
(5.0775e-10 6.16627e-15 0)
(5.07701e-10 5.95852e-15 0)
(5.07652e-10 5.75727e-15 0)
(5.07606e-10 5.5632e-15 0)
(5.07561e-10 5.37509e-15 0)
(5.07518e-10 5.19369e-15 0)
(5.07476e-10 5.01794e-15 0)
(5.07435e-10 4.84867e-15 0)
(5.07396e-10 4.68433e-15 0)
(5.07358e-10 4.52504e-15 0)
(5.07322e-10 4.37163e-15 0)
(5.07286e-10 4.22299e-15 0)
(5.07252e-10 4.07962e-15 0)
(5.07219e-10 3.94062e-15 0)
(5.07188e-10 3.80654e-15 0)
(5.07157e-10 3.67661e-15 0)
(5.07127e-10 3.55142e-15 0)
(5.07098e-10 3.42985e-15 0)
(5.07071e-10 3.31198e-15 0)
(5.07044e-10 3.19841e-15 0)
(5.07018e-10 3.08831e-15 0)
(5.06993e-10 2.98206e-15 0)
(5.06969e-10 2.879e-15 0)
(5.06946e-10 2.77954e-15 0)
(5.06924e-10 2.6831e-15 0)
(5.06902e-10 2.59013e-15 0)
(5.06881e-10 2.49978e-15 0)
(5.06861e-10 2.41213e-15 0)
(5.06841e-10 2.32759e-15 0)
(5.06823e-10 2.24557e-15 0)
(5.06804e-10 2.16634e-15 0)
(5.06787e-10 2.08943e-15 0)
(5.0677e-10 2.01514e-15 0)
(5.06754e-10 1.94304e-15 0)
(5.06738e-10 1.87345e-15 0)
(5.06723e-10 1.80575e-15 0)
(5.06709e-10 1.73998e-15 0)
(5.06695e-10 1.67645e-15 0)
(5.06681e-10 1.61473e-15 0)
(5.06668e-10 1.55503e-15 0)
(5.06655e-10 1.49701e-15 0)
(5.06643e-10 1.44086e-15 0)
(5.06632e-10 1.38628e-15 0)
(5.06621e-10 1.33347e-15 0)
(5.0661e-10 1.28201e-15 0)
(5.066e-10 1.23191e-15 0)
(5.0659e-10 1.18342e-15 0)
(5.0658e-10 1.1362e-15 0)
(5.06571e-10 1.09041e-15 0)
(5.06562e-10 1.04578e-15 0)
(5.06554e-10 1.00246e-15 0)
(5.06546e-10 9.60229e-16 0)
(5.06538e-10 9.19242e-16 0)
(5.06531e-10 8.79175e-16 0)
(5.06524e-10 8.40064e-16 0)
(5.06517e-10 8.02027e-16 0)
(5.0651e-10 7.64862e-16 0)
(5.06504e-10 7.28638e-16 0)
(5.06498e-10 6.93204e-16 0)
(5.06493e-10 6.58633e-16 0)
(5.06488e-10 6.24792e-16 0)
(5.06483e-10 5.91752e-16 0)
(5.06478e-10 5.59309e-16 0)
(5.06473e-10 5.27459e-16 0)
(5.06469e-10 4.96291e-16 0)
(5.06465e-10 4.65641e-16 0)
(5.06462e-10 4.35579e-16 0)
(5.06458e-10 4.05979e-16 0)
(5.06455e-10 3.76912e-16 0)
(5.06452e-10 3.48257e-16 0)
(5.06449e-10 3.20072e-16 0)
(5.06447e-10 2.92182e-16 0)
(5.06444e-10 2.64623e-16 0)
(5.06442e-10 2.37379e-16 0)
(5.0644e-10 2.10394e-16 0)
(5.06439e-10 1.83656e-16 0)
(5.06437e-10 1.57137e-16 0)
(5.06436e-10 1.30821e-16 0)
(5.06435e-10 1.04674e-16 0)
(5.06434e-10 7.86546e-17 0)
(5.06434e-10 5.2695e-17 0)
(5.06434e-10 2.67833e-17 0)
(5.06433e-10 9.03478e-19 0)
(5.06434e-10 -2.49898e-17 0)
(5.06434e-10 -5.0896e-17 0)
(5.06434e-10 -7.68561e-17 0)
(5.06435e-10 -1.02896e-16 0)
(5.06436e-10 -1.2906e-16 0)
(5.06437e-10 -1.55386e-16 0)
(5.06439e-10 -1.81902e-16 0)
(5.0644e-10 -2.08562e-16 0)
(5.06442e-10 -2.35481e-16 0)
(5.06444e-10 -2.62638e-16 0)
(5.06446e-10 -2.90138e-16 0)
(5.06449e-10 -3.1796e-16 0)
(5.06452e-10 -3.46206e-16 0)
(5.06455e-10 -3.7483e-16 0)
(5.06458e-10 -4.03935e-16 0)
(5.06461e-10 -4.33455e-16 0)
(5.06465e-10 -4.63376e-16 0)
(5.06469e-10 -4.93868e-16 0)
(5.06473e-10 -5.24906e-16 0)
(5.06477e-10 -5.56616e-16 0)
(5.06482e-10 -5.88959e-16 0)
(5.06487e-10 -6.22048e-16 0)
(5.06492e-10 -6.55817e-16 0)
(5.06498e-10 -6.90403e-16 0)
(5.06504e-10 -7.25714e-16 0)
(5.0651e-10 -7.6172e-16 0)
(5.06516e-10 -7.98708e-16 0)
(5.06523e-10 -8.36573e-16 0)
(5.0653e-10 -8.75513e-16 0)
(5.06537e-10 -9.15403e-16 0)
(5.06545e-10 -9.56444e-16 0)
(5.06553e-10 -9.98506e-16 0)
(5.06561e-10 -1.04185e-15 0)
(5.0657e-10 -1.08629e-15 0)
(5.06579e-10 -1.13183e-15 0)
(5.06589e-10 -1.17881e-15 0)
(5.06598e-10 -1.2271e-15 0)
(5.06609e-10 -1.27692e-15 0)
(5.06619e-10 -1.32813e-15 0)
(5.06631e-10 -1.38098e-15 0)
(5.06642e-10 -1.43533e-15 0)
(5.06654e-10 -1.49151e-15 0)
(5.06667e-10 -1.5493e-15 0)
(5.0668e-10 -1.60864e-15 0)
(5.06693e-10 -1.67008e-15 0)
(5.06707e-10 -1.73334e-15 0)
(5.06722e-10 -1.79879e-15 0)
(5.06737e-10 -1.86617e-15 0)
(5.06752e-10 -1.93588e-15 0)
(5.06768e-10 -2.00769e-15 0)
(5.06785e-10 -2.0821e-15 0)
(5.06803e-10 -2.15875e-15 0)
(5.06821e-10 -2.23761e-15 0)
(5.06839e-10 -2.31936e-15 0)
(5.06859e-10 -2.40364e-15 0)
(5.06879e-10 -2.49092e-15 0)
(5.069e-10 -2.58088e-15 0)
(5.06921e-10 -2.67405e-15 0)
(5.06944e-10 -2.77014e-15 0)
(5.06967e-10 -2.86981e-15 0)
(5.06991e-10 -2.97259e-15 0)
(5.07016e-10 -3.0784e-15 0)
(5.07041e-10 -3.1882e-15 0)
(5.07068e-10 -3.30146e-15 0)
(5.07096e-10 -3.41887e-15 0)
(5.07124e-10 -3.53993e-15 0)
(5.07154e-10 -3.66541e-15 0)
(5.07184e-10 -3.79489e-15 0)
(5.07216e-10 -3.92929e-15 0)
(5.07249e-10 -4.06794e-15 0)
(5.07283e-10 -4.21076e-15 0)
(5.07318e-10 -4.35902e-15 0)
(5.07355e-10 -4.51204e-15 0)
(5.07392e-10 -4.67069e-15 0)
(5.07431e-10 -4.83435e-15 0)
(5.07472e-10 -5.00402e-15 0)
(5.07514e-10 -5.17915e-15 0)
(5.07557e-10 -5.36098e-15 0)
(5.07602e-10 -5.54859e-15 0)
(5.07648e-10 -5.74184e-15 0)
(5.07696e-10 -5.9425e-15 0)
(5.07746e-10 -6.1496e-15 0)
(5.07797e-10 -6.36434e-15 0)
(5.0785e-10 -6.58585e-15 0)
(5.07905e-10 -6.81551e-15 0)
(5.07962e-10 -7.0525e-15 0)
(5.08021e-10 -7.29854e-15 0)
(5.08082e-10 -7.55232e-15 0)
(5.08145e-10 -7.81365e-15 0)
(5.0821e-10 -8.08494e-15 0)
(5.08278e-10 -8.36486e-15 0)
(5.08348e-10 -8.65501e-15 0)
(5.0842e-10 -8.95419e-15 0)
(5.08495e-10 -9.26424e-15 0)
(5.08572e-10 -9.58402e-15 0)
(5.08652e-10 -9.91584e-15 0)
(5.08735e-10 -1.0258e-14 0)
(5.08821e-10 -1.061e-14 0)
(5.08909e-10 -1.09754e-14 0)
(5.09001e-10 -1.13521e-14 0)
(5.09096e-10 -1.17423e-14 0)
(5.09194e-10 -1.21445e-14 0)
(5.09295e-10 -1.25612e-14 0)
(5.094e-10 -1.29907e-14 0)
(5.09509e-10 -1.34363e-14 0)
(5.09621e-10 -1.38955e-14 0)
(5.09737e-10 -1.4368e-14 0)
(5.09857e-10 -1.48582e-14 0)
(5.09982e-10 -1.53636e-14 0)
(5.1011e-10 -1.58874e-14 0)
(5.10243e-10 -1.64274e-14 0)
(5.1038e-10 -1.69871e-14 0)
(5.10522e-10 -1.75647e-14 0)
(5.10669e-10 -1.81646e-14 0)
(5.10822e-10 -1.87837e-14 0)
(5.10979e-10 -1.94219e-14 0)
(5.11141e-10 -2.00855e-14 0)
(5.1131e-10 -2.07715e-14 0)
(5.11484e-10 -2.14847e-14 0)
(5.11664e-10 -2.22225e-14 0)
(5.1185e-10 -2.29905e-14 0)
(5.12043e-10 -2.37868e-14 0)
(5.12242e-10 -2.4618e-14 0)
(5.12449e-10 -2.54811e-14 0)
(5.12663e-10 -2.63765e-14 0)
(5.12884e-10 -2.73138e-14 0)
(5.13113e-10 -2.82904e-14 0)
(5.13351e-10 -2.93136e-14 0)
(5.13597e-10 -3.03817e-14 0)
(5.13852e-10 -3.15033e-14 0)
(5.14117e-10 -3.26773e-14 0)
(5.14391e-10 -3.39145e-14 0)
(5.14676e-10 -3.52122e-14 0)
(5.14972e-10 -3.65725e-14 0)
(5.15278e-10 -3.80102e-14 0)
(5.15597e-10 -3.95232e-14 0)
(5.15928e-10 -4.1123e-14 0)
(5.16273e-10 -4.28086e-14 0)
(5.16631e-10 -4.45927e-14 0)
(5.17004e-10 -4.64749e-14 0)
(5.17392e-10 -4.84702e-14 0)
(5.17796e-10 -5.05748e-14 0)
(5.18217e-10 -5.27906e-14 0)
(5.18655e-10 -5.51367e-14 0)
(5.19112e-10 -5.76077e-14 0)
(5.19589e-10 -6.0216e-14 0)
(5.20086e-10 -6.29547e-14 0)
(5.20604e-10 -6.58358e-14 0)
(5.21144e-10 -6.88496e-14 0)
(5.21707e-10 -7.20075e-14 0)
(5.22294e-10 -7.52907e-14 0)
(5.22905e-10 -7.8685e-14 0)
(5.23542e-10 -8.22007e-14 0)
(5.24204e-10 -8.58062e-14 0)
(5.24892e-10 -8.94946e-14 0)
(5.25607e-10 -9.32241e-14 0)
(5.26349e-10 -9.69786e-14 0)
(5.27116e-10 -1.00702e-13 0)
(5.2791e-10 -1.04368e-13 0)
(5.28729e-10 -1.07895e-13 0)
(5.2957e-10 -1.11208e-13 0)
(5.30433e-10 -1.14258e-13 0)
(5.31315e-10 -1.16927e-13 0)
(5.32213e-10 -1.1913e-13 0)
(5.33123e-10 -1.2072e-13 0)
(5.3404e-10 -1.21587e-13 0)
(5.34959e-10 -1.21548e-13 0)
(5.35873e-10 -1.20464e-13 0)
(5.36774e-10 -1.18104e-13 0)
(5.37652e-10 -1.14259e-13 0)
(5.38498e-10 -1.08739e-13 0)
(5.39299e-10 -1.01251e-13 0)
(5.40042e-10 -9.15635e-14 0)
(5.40711e-10 -7.93504e-14 0)
(5.4129e-10 -6.43473e-14 0)
(5.4176e-10 -4.61989e-14 0)
(5.42102e-10 -2.4616e-14 0)
(5.42291e-10 7.91022e-16 0)
(5.42306e-10 3.03077e-14 0)
(5.42119e-10 6.42612e-14 0)
(5.41705e-10 1.03002e-13 0)
(5.41036e-10 1.46798e-13 0)
(5.40081e-10 1.95937e-13 0)
(5.38812e-10 2.50623e-13 0)
(5.37198e-10 3.11035e-13 0)
(5.35212e-10 3.77281e-13 0)
(5.32821e-10 4.49389e-13 0)
(5.30005e-10 5.2711e-13 0)
(5.2674e-10 6.10371e-13 0)
(5.23007e-10 6.98749e-13 0)
(5.18794e-10 7.91794e-13 0)
(5.14095e-10 8.88728e-13 0)
(5.08917e-10 9.88809e-13 0)
(5.03273e-10 1.09086e-12 0)
(4.97195e-10 1.19391e-12 0)
(4.90723e-10 1.29641e-12 0)
(4.83936e-10 1.39666e-12 0)
(4.76919e-10 1.49365e-12 0)
(4.69795e-10 1.58554e-12 0)
(4.62719e-10 1.67138e-12 0)
(4.55897e-10 1.74942e-12 0)
(4.49595e-10 1.81857e-12 0)
(4.44169e-10 1.87448e-12 0)
(4.40108e-10 1.90836e-12 0)
(4.38129e-10 1.89313e-12 0)
(4.39371e-10 1.75628e-12 0)
(4.45782e-10 1.28172e-12 0)
(4.60767e-10 -1.61808e-13 0)
(4.89742e-10 -3.8756e-12 0)
(5.45313e-10 -1.23014e-11 0)
(6.76358e-10 -4.00456e-11 0)
(1.01098e-09 -1.89018e-10 0)
(1.32258e-09 -7.91879e-10 0)
(1.80972e-09 -2.96404e-09 0)
(5.09486e-09 -6.27485e-09 0)
(-6.75081e-07 8.2185e-07 0)
(-6.52543e-06 1.55429e-06 0)
(-1.40718e-05 1.88025e-06 0)
(-2.17266e-05 1.80483e-06 0)
(-2.81078e-05 1.46442e-06 0)
(-3.22354e-05 9.71522e-07 0)
(-3.35619e-05 4.12068e-07 0)
(-3.18812e-05 -1.53323e-07 0)
(-2.7259e-05 -6.80634e-07 0)
(-1.9948e-05 -1.14335e-06 0)
(-1.03181e-05 -1.52536e-06 0)
(1.18487e-06 -1.82119e-06 0)
(1.4095e-05 -2.0306e-06 0)
(2.79499e-05 -2.16e-06 0)
(4.23211e-05 -2.21719e-06 0)
(5.68252e-05 -2.21339e-06 0)
(7.11467e-05 -2.15862e-06 0)
(8.49903e-05 -2.06378e-06 0)
(9.81565e-05 -1.93953e-06 0)
(0.000110485 -1.79426e-06 0)
(0.000121866 -1.63609e-06 0)
(0.00013223 -1.47118e-06 0)
(0.000141544 -1.30505e-06 0)
(0.000149803 -1.14162e-06 0)
(0.000157025 -9.84174e-07 0)
(0.000163251 -8.346e-07 0)
(0.000168519 -6.94675e-07 0)
(0.000172892 -5.65254e-07 0)
(0.000176431 -4.46676e-07 0)
(0.000179204 -3.38903e-07 0)
(0.000181273 -2.4166e-07 0)
(0.000182704 -1.54368e-07 0)
(0.000183556 -7.63833e-08 0)
(0.000183887 -6.80883e-09 0)
(0.000183747 5.52006e-08 0)
(0.000183185 1.10442e-07 0)
(0.000182241 1.60095e-07 0)
(0.000180949 2.0519e-07 0)
(0.00017934 2.46961e-07 0)
(0.000177432 2.86601e-07 0)
(0.000175241 3.25622e-07 0)
(0.000172771 3.65714e-07 0)
(0.000170018 4.09229e-07 0)
(0.000166962 4.59321e-07 0)
(0.000163574 5.20718e-07 0)
(0.000159795 6.01623e-07 0)
(0.000155531 7.16777e-07 0)
(0.000150657 8.8916e-07 0)
(0.000144988 1.13917e-06 0)
(0.000137973 1.51775e-06 0)
(0.000127937 2.48383e-06 0)
(0.000115864 4.80918e-06 0)
(0.00149744 0.000397976 0)
(0.0014531 0.000461195 0)
(0.00126561 0.000342582 0)
(0.00106729 0.000236255 0)
(0.000905336 0.00016218 0)
(0.000779504 0.000112772 0)
(0.000682355 8.00341e-05 0)
(0.000607495 5.80518e-05 0)
(0.000549785 4.28848e-05 0)
(0.000505255 3.20721e-05 0)
(0.000470944 2.41109e-05 0)
(0.000444667 1.80783e-05 0)
(0.000424792 1.33979e-05 0)
(0.000410071 9.70195e-06 0)
(0.000399533 6.75045e-06 0)
(0.000392396 4.38307e-06 0)
(0.000388017 2.49087e-06 0)
(0.000385848 9.98792e-07 0)
(0.00038541 -1.45308e-07 0)
(0.000386276 -9.77236e-07 0)
(0.000388048 -1.52153e-06 0)
(0.000390356 -1.7944e-06 0)
(0.000392842 -1.80644e-06 0)
(0.000395162 -1.56416e-06 0)
(0.000396974 -1.07167e-06 0)
(0.000397944 -3.3182e-07 0)
(0.000397741 6.52139e-07 0)
(0.000396039 1.87535e-06 0)
(0.000392524 3.32935e-06 0)
(0.000386893 5.00128e-06 0)
(0.000378869 6.87186e-06 0)
(0.000368205 8.91337e-06 0)
(0.000354698 1.1088e-05 0)
(0.000338205 1.33459e-05 0)
(0.000318655 1.56234e-05 0)
(0.000296073 1.78423e-05 0)
(0.000270593 1.99091e-05 0)
(0.000242485 2.17153e-05 0)
(0.000212162 2.31413e-05 0)
(0.000180196 2.4059e-05 0)
(0.000147325 2.43403e-05 0)
(0.000114441 2.38659e-05 0)
(8.25752e-05 2.25397e-05 0)
(5.28536e-05 2.03037e-05 0)
(2.64366e-05 1.71582e-05 0)
(4.43255e-06 1.31807e-05 0)
(-1.22051e-05 8.54972e-06 0)
(-2.28233e-05 3.56285e-06 0)
(-2.72108e-05 -1.34264e-06 0)
(-2.57681e-05 -5.57484e-06 0)
(-1.96323e-05 -8.38353e-06 0)
(-1.06873e-05 -8.87975e-06 0)
(-1.66225e-06 -6.14879e-06 0)
(3.47232e-09 3.14596e-09 0)
(3.18209e-09 1.59297e-09 0)
(2.71136e-09 7.46338e-10 0)
(2.17509e-09 3.66388e-10 0)
(1.85908e-09 1.91372e-10 0)
(1.67666e-09 1.03444e-10 0)
(1.5631e-09 5.64655e-11 0)
(1.49164e-09 3.00269e-11 0)
(1.44828e-09 1.42855e-11 0)
(1.42383e-09 4.39902e-12 0)
(1.41231e-09 -2.06918e-12 0)
(1.4098e-09 -6.40074e-12 0)
(1.41362e-09 -9.309e-12 0)
(1.42186e-09 -1.12139e-11 0)
(1.43313e-09 -1.23808e-11 0)
(1.44636e-09 -1.29888e-11 0)
(1.46075e-09 -1.31668e-11 0)
(1.47567e-09 -1.30127e-11 0)
(1.49064e-09 -1.26037e-11 0)
(1.50528e-09 -1.20022e-11 0)
(1.5193e-09 -1.12596e-11 0)
(1.53252e-09 -1.04186e-11 0)
(1.54476e-09 -9.51429e-12 0)
(1.55594e-09 -8.57592e-12 0)
(1.56599e-09 -7.62726e-12 0)
(1.5749e-09 -6.68758e-12 0)
(1.58266e-09 -5.77219e-12 0)
(1.5893e-09 -4.89299e-12 0)
(1.59486e-09 -4.05887e-12 0)
(1.59938e-09 -3.27641e-12 0)
(1.60295e-09 -2.54986e-12 0)
(1.60561e-09 -1.88173e-12 0)
(1.60745e-09 -1.27304e-12 0)
(1.60853e-09 -7.2361e-13 0)
(1.60893e-09 -2.32242e-13 0)
(1.60872e-09 2.03003e-13 0)
(1.60798e-09 5.84685e-13 0)
(1.60677e-09 9.15803e-13 0)
(1.60515e-09 1.19958e-12 0)
(1.60318e-09 1.43953e-12 0)
(1.60092e-09 1.63919e-12 0)
(1.59842e-09 1.80215e-12 0)
(1.59572e-09 1.93192e-12 0)
(1.59288e-09 2.03194e-12 0)
(1.58991e-09 2.10546e-12 0)
(1.58686e-09 2.15562e-12 0)
(1.58376e-09 2.18531e-12 0)
(1.58064e-09 2.19727e-12 0)
(1.57751e-09 2.194e-12 0)
(1.57439e-09 2.17778e-12 0)
(1.5713e-09 2.15072e-12 0)
(1.56826e-09 2.11468e-12 0)
(1.56527e-09 2.07136e-12 0)
(1.56235e-09 2.02223e-12 0)
(1.5595e-09 1.96862e-12 0)
(1.55672e-09 1.91168e-12 0)
(1.55403e-09 1.85241e-12 0)
(1.55142e-09 1.79167e-12 0)
(1.54889e-09 1.7302e-12 0)
(1.54645e-09 1.66861e-12 0)
(1.5441e-09 1.60741e-12 0)
(1.54183e-09 1.54704e-12 0)
(1.53965e-09 1.48782e-12 0)
(1.53755e-09 1.43004e-12 0)
(1.53553e-09 1.37388e-12 0)
(1.53358e-09 1.31953e-12 0)
(1.53172e-09 1.26707e-12 0)
(1.52992e-09 1.21658e-12 0)
(1.5282e-09 1.16809e-12 0)
(1.52654e-09 1.12161e-12 0)
(1.52495e-09 1.07712e-12 0)
(1.52342e-09 1.0346e-12 0)
(1.52195e-09 9.93995e-13 0)
(1.52054e-09 9.55242e-13 0)
(1.51918e-09 9.18283e-13 0)
(1.51787e-09 8.83044e-13 0)
(1.51661e-09 8.49448e-13 0)
(1.5154e-09 8.17418e-13 0)
(1.51424e-09 7.86875e-13 0)
(1.51312e-09 7.57743e-13 0)
(1.51204e-09 7.29943e-13 0)
(1.51099e-09 7.03402e-13 0)
(1.50999e-09 6.78046e-13 0)
(1.50902e-09 6.53811e-13 0)
(1.50809e-09 6.3063e-13 0)
(1.50719e-09 6.08441e-13 0)
(1.50632e-09 5.87187e-13 0)
(1.50548e-09 5.66812e-13 0)
(1.50467e-09 5.47266e-13 0)
(1.50388e-09 5.28501e-13 0)
(1.50313e-09 5.10474e-13 0)
(1.5024e-09 4.93141e-13 0)
(1.50169e-09 4.76468e-13 0)
(1.50101e-09 4.60419e-13 0)
(1.50035e-09 4.44961e-13 0)
(1.49972e-09 4.30064e-13 0)
(1.4991e-09 4.157e-13 0)
(1.49851e-09 4.01845e-13 0)
(1.49793e-09 3.88474e-13 0)
(1.49738e-09 3.75566e-13 0)
(1.49684e-09 3.63098e-13 0)
(1.49632e-09 3.51055e-13 0)
(1.49582e-09 3.39419e-13 0)
(1.49534e-09 3.28172e-13 0)
(1.49487e-09 3.173e-13 0)
(1.49441e-09 3.06788e-13 0)
(1.49397e-09 2.96623e-13 0)
(1.49355e-09 2.86792e-13 0)
(1.49314e-09 2.77284e-13 0)
(1.49274e-09 2.68087e-13 0)
(1.49236e-09 2.59191e-13 0)
(1.49199e-09 2.50585e-13 0)
(1.49163e-09 2.42261e-13 0)
(1.49129e-09 2.34208e-13 0)
(1.49095e-09 2.26418e-13 0)
(1.49063e-09 2.18882e-13 0)
(1.49032e-09 2.11593e-13 0)
(1.49001e-09 2.04541e-13 0)
(1.48972e-09 1.9772e-13 0)
(1.48944e-09 1.91123e-13 0)
(1.48917e-09 1.84741e-13 0)
(1.4889e-09 1.7857e-13 0)
(1.48865e-09 1.726e-13 0)
(1.4884e-09 1.66828e-13 0)
(1.48816e-09 1.61245e-13 0)
(1.48793e-09 1.55846e-13 0)
(1.48771e-09 1.50625e-13 0)
(1.48749e-09 1.45574e-13 0)
(1.48728e-09 1.40692e-13 0)
(1.48708e-09 1.35972e-13 0)
(1.48689e-09 1.31408e-13 0)
(1.4867e-09 1.26996e-13 0)
(1.48652e-09 1.22729e-13 0)
(1.48635e-09 1.18604e-13 0)
(1.48618e-09 1.14615e-13 0)
(1.48601e-09 1.10759e-13 0)
(1.48585e-09 1.07027e-13 0)
(1.4857e-09 1.03422e-13 0)
(1.48555e-09 9.99363e-14 0)
(1.48541e-09 9.65661e-14 0)
(1.48527e-09 9.33081e-14 0)
(1.48514e-09 9.01577e-14 0)
(1.48501e-09 8.7112e-14 0)
(1.48489e-09 8.41668e-14 0)
(1.48477e-09 8.13197e-14 0)
(1.48465e-09 7.85637e-14 0)
(1.48454e-09 7.59007e-14 0)
(1.48443e-09 7.33261e-14 0)
(1.48432e-09 7.08363e-14 0)
(1.48422e-09 6.84288e-14 0)
(1.48412e-09 6.61002e-14 0)
(1.48403e-09 6.38486e-14 0)
(1.48394e-09 6.16706e-14 0)
(1.48385e-09 5.95645e-14 0)
(1.48377e-09 5.75252e-14 0)
(1.48368e-09 5.5554e-14 0)
(1.4836e-09 5.36475e-14 0)
(1.48353e-09 5.18029e-14 0)
(1.48345e-09 5.00185e-14 0)
(1.48338e-09 4.82918e-14 0)
(1.48331e-09 4.66212e-14 0)
(1.48325e-09 4.50044e-14 0)
(1.48318e-09 4.344e-14 0)
(1.48312e-09 4.19242e-14 0)
(1.48306e-09 4.0458e-14 0)
(1.483e-09 3.90389e-14 0)
(1.48295e-09 3.76648e-14 0)
(1.48289e-09 3.63345e-14 0)
(1.48284e-09 3.50459e-14 0)
(1.48279e-09 3.37981e-14 0)
(1.48274e-09 3.25892e-14 0)
(1.4827e-09 3.14183e-14 0)
(1.48265e-09 3.02825e-14 0)
(1.48261e-09 2.91825e-14 0)
(1.48257e-09 2.81164e-14 0)
(1.48253e-09 2.70827e-14 0)
(1.48249e-09 2.60805e-14 0)
(1.48245e-09 2.51083e-14 0)
(1.48242e-09 2.41653e-14 0)
(1.48238e-09 2.32502e-14 0)
(1.48235e-09 2.2362e-14 0)
(1.48232e-09 2.14989e-14 0)
(1.48229e-09 2.06612e-14 0)
(1.48226e-09 1.98475e-14 0)
(1.48223e-09 1.90567e-14 0)
(1.4822e-09 1.82881e-14 0)
(1.48217e-09 1.75405e-14 0)
(1.48215e-09 1.68132e-14 0)
(1.48213e-09 1.61054e-14 0)
(1.4821e-09 1.54163e-14 0)
(1.48208e-09 1.47443e-14 0)
(1.48206e-09 1.40899e-14 0)
(1.48204e-09 1.34518e-14 0)
(1.48202e-09 1.28293e-14 0)
(1.482e-09 1.22217e-14 0)
(1.48199e-09 1.16281e-14 0)
(1.48197e-09 1.1048e-14 0)
(1.48195e-09 1.04807e-14 0)
(1.48194e-09 9.92559e-15 0)
(1.48192e-09 9.38139e-15 0)
(1.48191e-09 8.8485e-15 0)
(1.4819e-09 8.32587e-15 0)
(1.48189e-09 7.81285e-15 0)
(1.48188e-09 7.30887e-15 0)
(1.48187e-09 6.81333e-15 0)
(1.48186e-09 6.32569e-15 0)
(1.48185e-09 5.8454e-15 0)
(1.48184e-09 5.3719e-15 0)
(1.48183e-09 4.90421e-15 0)
(1.48182e-09 4.44256e-15 0)
(1.48182e-09 3.98609e-15 0)
(1.48181e-09 3.53416e-15 0)
(1.48181e-09 3.08634e-15 0)
(1.4818e-09 2.64204e-15 0)
(1.4818e-09 2.20084e-15 0)
(1.4818e-09 1.76217e-15 0)
(1.4818e-09 1.32559e-15 0)
(1.48179e-09 8.90113e-16 0)
(1.48179e-09 4.56057e-16 0)
(1.48179e-09 2.24748e-17 0)
(1.48179e-09 -4.11079e-16 0)
(1.48179e-09 -8.45138e-16 0)
(1.4818e-09 -1.28013e-15 0)
(1.4818e-09 -1.71662e-15 0)
(1.4818e-09 -2.15506e-15 0)
(1.4818e-09 -2.59603e-15 0)
(1.48181e-09 -3.04037e-15 0)
(1.48181e-09 -3.48782e-15 0)
(1.48182e-09 -3.93929e-15 0)
(1.48182e-09 -4.39529e-15 0)
(1.48183e-09 -4.85636e-15 0)
(1.48184e-09 -5.32306e-15 0)
(1.48185e-09 -5.79595e-15 0)
(1.48186e-09 -6.27557e-15 0)
(1.48186e-09 -6.76248e-15 0)
(1.48187e-09 -7.25763e-15 0)
(1.48189e-09 -7.76064e-15 0)
(1.4819e-09 -8.27264e-15 0)
(1.48191e-09 -8.79414e-15 0)
(1.48192e-09 -9.32588e-15 0)
(1.48194e-09 -9.86839e-15 0)
(1.48195e-09 -1.04224e-14 0)
(1.48197e-09 -1.09885e-14 0)
(1.48198e-09 -1.15673e-14 0)
(1.482e-09 -1.216e-14 0)
(1.48202e-09 -1.27661e-14 0)
(1.48204e-09 -1.3387e-14 0)
(1.48206e-09 -1.40233e-14 0)
(1.48208e-09 -1.4676e-14 0)
(1.4821e-09 -1.53456e-14 0)
(1.48212e-09 -1.60331e-14 0)
(1.48215e-09 -1.6739e-14 0)
(1.48217e-09 -1.74644e-14 0)
(1.4822e-09 -1.82106e-14 0)
(1.48222e-09 -1.8977e-14 0)
(1.48225e-09 -1.97655e-14 0)
(1.48228e-09 -2.05768e-14 0)
(1.48231e-09 -2.1412e-14 0)
(1.48234e-09 -2.22719e-14 0)
(1.48238e-09 -2.31576e-14 0)
(1.48241e-09 -2.40701e-14 0)
(1.48245e-09 -2.50106e-14 0)
(1.48248e-09 -2.59808e-14 0)
(1.48252e-09 -2.698e-14 0)
(1.48256e-09 -2.80105e-14 0)
(1.4826e-09 -2.90735e-14 0)
(1.48265e-09 -3.01702e-14 0)
(1.48269e-09 -3.13018e-14 0)
(1.48274e-09 -3.24698e-14 0)
(1.48279e-09 -3.36753e-14 0)
(1.48284e-09 -3.492e-14 0)
(1.48289e-09 -3.62061e-14 0)
(1.48294e-09 -3.75328e-14 0)
(1.483e-09 -3.89032e-14 0)
(1.48305e-09 -4.03185e-14 0)
(1.48311e-09 -4.17808e-14 0)
(1.48318e-09 -4.32913e-14 0)
(1.48324e-09 -4.48522e-14 0)
(1.48331e-09 -4.64649e-14 0)
(1.48338e-09 -4.81318e-14 0)
(1.48345e-09 -4.98557e-14 0)
(1.48352e-09 -5.16356e-14 0)
(1.4836e-09 -5.34756e-14 0)
(1.48368e-09 -5.53775e-14 0)
(1.48376e-09 -5.73438e-14 0)
(1.48384e-09 -5.93764e-14 0)
(1.48393e-09 -6.1478e-14 0)
(1.48402e-09 -6.36508e-14 0)
(1.48412e-09 -6.58977e-14 0)
(1.48421e-09 -6.82227e-14 0)
(1.48431e-09 -7.06243e-14 0)
(1.48442e-09 -7.31082e-14 0)
(1.48453e-09 -7.56765e-14 0)
(1.48464e-09 -7.83329e-14 0)
(1.48475e-09 -8.10796e-14 0)
(1.48487e-09 -8.39206e-14 0)
(1.485e-09 -8.68583e-14 0)
(1.48513e-09 -8.98971e-14 0)
(1.48526e-09 -9.30421e-14 0)
(1.4854e-09 -9.62911e-14 0)
(1.48554e-09 -9.96519e-14 0)
(1.48569e-09 -1.03127e-13 0)
(1.48584e-09 -1.06722e-13 0)
(1.486e-09 -1.10439e-13 0)
(1.48616e-09 -1.14283e-13 0)
(1.48633e-09 -1.18259e-13 0)
(1.4865e-09 -1.2237e-13 0)
(1.48668e-09 -1.26625e-13 0)
(1.48687e-09 -1.3102e-13 0)
(1.48707e-09 -1.35565e-13 0)
(1.48727e-09 -1.40264e-13 0)
(1.48747e-09 -1.45123e-13 0)
(1.48769e-09 -1.50146e-13 0)
(1.48791e-09 -1.5534e-13 0)
(1.48814e-09 -1.60709e-13 0)
(1.48838e-09 -1.66261e-13 0)
(1.48862e-09 -1.72004e-13 0)
(1.48888e-09 -1.77934e-13 0)
(1.48914e-09 -1.84064e-13 0)
(1.48941e-09 -1.90401e-13 0)
(1.48969e-09 -1.96951e-13 0)
(1.48998e-09 -2.03721e-13 0)
(1.49029e-09 -2.10719e-13 0)
(1.4906e-09 -2.17951e-13 0)
(1.49092e-09 -2.25428e-13 0)
(1.49125e-09 -2.33163e-13 0)
(1.4916e-09 -2.4115e-13 0)
(1.49195e-09 -2.49408e-13 0)
(1.49232e-09 -2.57946e-13 0)
(1.4927e-09 -2.66776e-13 0)
(1.4931e-09 -2.75907e-13 0)
(1.49351e-09 -2.85353e-13 0)
(1.49393e-09 -2.95126e-13 0)
(1.49436e-09 -3.05241e-13 0)
(1.49482e-09 -3.15721e-13 0)
(1.49528e-09 -3.26561e-13 0)
(1.49577e-09 -3.37794e-13 0)
(1.49627e-09 -3.49434e-13 0)
(1.49678e-09 -3.61506e-13 0)
(1.49732e-09 -3.74028e-13 0)
(1.49787e-09 -3.87028e-13 0)
(1.49844e-09 -4.00531e-13 0)
(1.49904e-09 -4.14567e-13 0)
(1.49965e-09 -4.29178e-13 0)
(1.50029e-09 -4.4437e-13 0)
(1.50094e-09 -4.60198e-13 0)
(1.50163e-09 -4.76699e-13 0)
(1.50233e-09 -4.93918e-13 0)
(1.50306e-09 -5.11897e-13 0)
(1.50382e-09 -5.30691e-13 0)
(1.50461e-09 -5.50348e-13 0)
(1.50542e-09 -5.7093e-13 0)
(1.50627e-09 -5.92508e-13 0)
(1.50715e-09 -6.15108e-13 0)
(1.50806e-09 -6.3882e-13 0)
(1.509e-09 -6.63707e-13 0)
(1.50999e-09 -6.89845e-13 0)
(1.51101e-09 -7.173e-13 0)
(1.51207e-09 -7.46148e-13 0)
(1.51318e-09 -7.76458e-13 0)
(1.51432e-09 -8.08305e-13 0)
(1.51552e-09 -8.41777e-13 0)
(1.51677e-09 -8.76874e-13 0)
(1.51806e-09 -9.13689e-13 0)
(1.51941e-09 -9.52257e-13 0)
(1.52082e-09 -9.92614e-13 0)
(1.52228e-09 -1.03476e-12 0)
(1.52381e-09 -1.0787e-12 0)
(1.5254e-09 -1.12439e-12 0)
(1.52705e-09 -1.17177e-12 0)
(1.52878e-09 -1.22077e-12 0)
(1.53057e-09 -1.27115e-12 0)
(1.53243e-09 -1.32277e-12 0)
(1.53437e-09 -1.37536e-12 0)
(1.53638e-09 -1.4286e-12 0)
(1.53847e-09 -1.48207e-12 0)
(1.54063e-09 -1.5353e-12 0)
(1.54286e-09 -1.58768e-12 0)
(1.54516e-09 -1.63852e-12 0)
(1.54754e-09 -1.68702e-12 0)
(1.54998e-09 -1.73213e-12 0)
(1.55248e-09 -1.77282e-12 0)
(1.55502e-09 -1.80779e-12 0)
(1.55762e-09 -1.83564e-12 0)
(1.56024e-09 -1.85472e-12 0)
(1.56289e-09 -1.86326e-12 0)
(1.56553e-09 -1.85921e-12 0)
(1.56816e-09 -1.84043e-12 0)
(1.57076e-09 -1.80438e-12 0)
(1.57329e-09 -1.74852e-12 0)
(1.57574e-09 -1.67007e-12 0)
(1.57805e-09 -1.56593e-12 0)
(1.58021e-09 -1.43301e-12 0)
(1.58217e-09 -1.26791e-12 0)
(1.58389e-09 -1.06729e-12 0)
(1.58531e-09 -8.27557e-13 0)
(1.58638e-09 -5.45352e-13 0)
(1.58705e-09 -2.16845e-13 0)
(1.58725e-09 1.60623e-13 0)
(1.58691e-09 5.90208e-13 0)
(1.58598e-09 1.07463e-12 0)
(1.58437e-09 1.6158e-12 0)
(1.58202e-09 2.21518e-12 0)
(1.57885e-09 2.87307e-12 0)
(1.57479e-09 3.5889e-12 0)
(1.56977e-09 4.36048e-12 0)
(1.56373e-09 5.18486e-12 0)
(1.55662e-09 6.05482e-12 0)
(1.54839e-09 6.96304e-12 0)
(1.53901e-09 7.89874e-12 0)
(1.52848e-09 8.84802e-12 0)
(1.51682e-09 9.79318e-12 0)
(1.50406e-09 1.07126e-11 0)
(1.4903e-09 1.15792e-11 0)
(1.47566e-09 1.2361e-11 0)
(1.46032e-09 1.30189e-11 0)
(1.44455e-09 1.3504e-11 0)
(1.4287e-09 1.37599e-11 0)
(1.41319e-09 1.37137e-11 0)
(1.39862e-09 1.32754e-11 0)
(1.38572e-09 1.23224e-11 0)
(1.37549e-09 1.06877e-11 0)
(1.36923e-09 8.1178e-12 0)
(1.36874e-09 4.21685e-12 0)
(1.37654e-09 -1.70289e-12 0)
(1.39637e-09 -1.08556e-11 0)
(1.43388e-09 -2.55606e-11 0)
(1.49787e-09 -5.04486e-11 0)
(1.60164e-09 -9.48724e-11 0)
(1.77073e-09 -1.7831e-10 0)
(2.06652e-09 -3.44567e-10 0)
(2.57333e-09 -7.05852e-10 0)
(3.0193e-09 -1.51263e-09 0)
(3.29663e-09 -2.99362e-09 0)
(4.16814e-09 -4.3713e-09 0)
(-2.00591e-06 7.56822e-06 0)
(-1.57217e-05 1.29121e-05 0)