/*--------------------------------*- C++ -*----------------------------------*\
| =========                 |                                                 |
| \\      /  F ield         | OpenFOAM: The Open Source CFD Toolbox           |
|  \\    /   O peration     | Version:  2512                                  |
|   \\  /    A nd           | Website:  www.openfoam.com                      |
|    \\/     M anipulation  |                                                 |
\*---------------------------------------------------------------------------*/
FoamFile
{
    version     2.0;
    format      ascii;
    arch        "LSB;label=32;scalar=64";
    class       volVectorField;
    location    "2";
    object      U;
}
// * * * * * * * * * * * * * * * * * * * * * * * * * * * * * * * * * * * * * //

dimensions      [0 1 -1 0 0 0 0];

internalField nonuniform List<vector> 79633((0.00021815 3.4926e-05 0.0) (0.000183464 2.99628e-05 0.0) (0.000134058 1.55038e-05 0.0) (9.8009e-05 8.17407e-06 0.0) (7.55981e-05 4.74836e-06 0.0) (6.10682e-05 2.89184e-06 0.0) (5.10319e-05 1.832e-06 0.0) (4.37967e-05 1.22254e-06 0.0) (3.83878e-05 8.60849e-07 0.0) (3.42071e-05 6.35306e-07 0.0) (3.0883e-05 4.87336e-07 0.0) (2.81793e-05 3.85588e-07 0.0) (2.59398e-05 3.12603e-07 0.0) (2.40577e-05 2.58302e-07 0.0) (2.24574e-05 2.16642e-07 0.0) (2.10836e-05 1.83857e-07 0.0) (1.98953e-05 1.57505e-07 0.0) (1.88609e-05 1.35945e-07 0.0) (1.7956e-05 1.18039e-07 0.0) (1.71614e-05 1.02973e-07 0.0) (1.64614e-05 9.01516e-08 0.0) (1.58434e-05 7.91297e-08 0.0) (1.52972e-05 6.95684e-08 0.0) (1.48141e-05 6.12049e-08 0.0) (1.4387e-05 5.3833e-08 0.0) (1.40099e-05 4.72886e-08 0.0) (1.36777e-05 4.14401e-08 0.0) (1.33861e-05 3.61801e-08 0.0) (1.31313e-05 3.14205e-08 0.0) (1.29101e-05 2.70889e-08 0.0) (1.27198e-05 2.31238e-08 0.0) (1.2558e-05 1.94739e-08 0.0) (1.24227e-05 1.60969e-08 0.0) (1.23119e-05 1.29555e-08 0.0) (1.22242e-05 1.00176e-08 0.0) (1.21582e-05 7.25591e-09 0.0) (1.21126e-05 4.64734e-09 0.0) (1.20865e-05 2.17112e-09 0.0) (1.2079e-05 -1.91066e-10 0.0) (1.20892e-05 -2.45473e-09 0.0) (1.21165e-05 -4.63371e-09 0.0) (1.21602e-05 -6.74054e-09 0.0) (1.222e-05 -8.78529e-09 0.0) (1.22952e-05 -1.07775e-08 0.0) (1.23856e-05 -1.27258e-08 0.0) (1.24908e-05 -1.46374e-08 0.0) (1.26106e-05 -1.65178e-08 0.0) (1.27447e-05 -1.83729e-08 0.0) (1.28928e-05 -2.02076e-08 0.0) (1.3055e-05 -2.20247e-08 0.0) (1.32308e-05 -2.38279e-08 0.0) (1.34204e-05 -2.56201e-08 0.0) (1.36234e-05 -2.74028e-08 0.0) (1.38399e-05 -2.91757e-08 0.0) (1.40698e-05 -3.09403e-08 0.0) (1.43128e-05 -3.26969e-08 0.0) (1.45689e-05 -3.44445e-08 0.0) (1.48381e-05 -3.618e-08 0.0) (1.51201e-05 -3.79027e-08 0.0) (1.54148e-05 -3.96103e-08 0.0) (1.57221e-05 -4.12973e-08 0.0) (1.60416e-05 -4.29613e-08 0.0) (1.63733e-05 -4.45983e-08 0.0) (1.67168e-05 -4.62028e-08 0.0) (1.70719e-05 -4.77669e-08 0.0) (1.7438e-05 -4.9286e-08 0.0) (1.7815e-05 -5.07542e-08 0.0) (1.82023e-05 -5.21635e-08 0.0) (1.85994e-05 -5.35037e-08 0.0) (1.90057e-05 -5.4769e-08 0.0) (1.94207e-05 -5.5951e-08 0.0) (1.98437e-05 -5.7038e-08 0.0) (2.02738e-05 -5.80228e-08 0.0) (2.07103e-05 -5.88972e-08 0.0) (2.11525e-05 -5.9651e-08 0.0) (2.15992e-05 -6.02724e-08 0.0) (2.20494e-05 -6.0755e-08 0.0) (2.25022e-05 -6.10902e-08 0.0) (2.29564e-05 -6.12663e-08 0.0) (2.34108e-05 -6.12781e-08 0.0) (2.38643e-05 -6.1119e-08 0.0) (2.43155e-05 -6.0782e-08 0.0) (2.47632e-05 -6.02585e-08 0.0) (2.52059e-05 -5.95473e-08 0.0) (2.56424e-05 -5.86454e-08 0.0) (2.60713e-05 -5.75503e-08 0.0) (2.64911e-05 -5.62586e-08 0.0) (2.69005e-05 -5.47746e-08 0.0) (2.72982e-05 -5.30997e-08 0.0) (2.76828e-05 -5.12355e-08 0.0) (2.80529e-05 -4.91896e-08 0.0) (2.84073e-05 -4.69693e-08 0.0) (2.87449e-05 -4.45813e-08 0.0) (2.90643e-05 -4.2034e-08 0.0) (2.93646e-05 -3.93399e-08 0.0) (2.96448e-05 -3.65116e-08 0.0) (2.99039e-05 -3.35605e-08 0.0) (3.01411e-05 -3.04996e-08 0.0) (3.03556e-05 -2.73451e-08 0.0) (3.0547e-05 -2.41113e-08 0.0) (3.07145e-05 -2.08123e-08 0.0) (3.08579e-05 -1.74655e-08 0.0) (3.09767e-05 -1.40857e-08 0.0) (3.10709e-05 -1.06877e-08 0.0) (3.11403e-05 -7.2862e-09 0.0) (3.11849e-05 -3.8972e-09 0.0) (3.12048e-05 -5.32953e-10 0.0) (3.12002e-05 2.79213e-09 0.0) (3.11715e-05 6.06528e-09 0.0) (3.11189e-05 9.27513e-09 0.0) (3.1043e-05 1.24125e-08 0.0) (3.09442e-05 1.54667e-08 0.0) (3.08231e-05 1.84307e-08 0.0) (3.06804e-05 2.12987e-08 0.0) (3.05166e-05 2.4067e-08 0.0) (3.03325e-05 2.67308e-08 0.0) (3.01288e-05 2.92908e-08 0.0) (2.99061e-05 3.17488e-08 0.0) (2.9665e-05 3.41066e-08 0.0) (2.94064e-05 3.6371e-08 0.0) (2.91307e-05 3.85517e-08 0.0) (2.88384e-05 4.06593e-08 0.0) (2.85299e-05 4.27063e-08 0.0) (2.82057e-05 4.47106e-08 0.0) (2.78659e-05 4.66941e-08 0.0) (2.75104e-05 4.86798e-08 0.0) (2.71393e-05 5.06933e-08 0.0) (2.67522e-05 5.27678e-08 0.0) (2.63484e-05 5.49401e-08 0.0) (2.59273e-05 5.7248e-08 0.0) (2.54878e-05 5.97397e-08 0.0) (2.50285e-05 6.24687e-08 0.0) (2.45475e-05 6.54944e-08 0.0) (2.40428e-05 6.88818e-08 0.0) (2.35118e-05 7.27107e-08 0.0) (2.29514e-05 7.70705e-08 0.0) (2.23579e-05 8.20596e-08 0.0) (2.17273e-05 8.77964e-08 0.0) (2.10545e-05 9.44184e-08 0.0) (2.03337e-05 1.0208e-07 0.0) (1.95586e-05 1.10957e-07 0.0) (1.87218e-05 1.21253e-07 0.0) (1.78149e-05 1.33197e-07 0.0) (1.68284e-05 1.47034e-07 0.0) (1.57523e-05 1.63001e-07 0.0) (1.45761e-05 1.81303e-07 0.0) (1.32887e-05 2.02025e-07 0.0) (1.18806e-05 2.2495e-07 0.0) (1.03455e-05 2.49275e-07 0.0) (8.68404e-06 2.7304e-07 0.0) (6.90984e-06 2.92131e-07 0.0) (5.06139e-06 2.987e-07 0.0) (3.21793e-06 2.79345e-07 0.0) (1.52296e-06 2.14012e-07 0.0) (2.10012e-07 7.80892e-08 0.0) (-4.28112e-07 -1.43559e-07 0.0) (-3.12197e-07 -3.55828e-07 0.0) (5.54302e-09 7.63237e-09 0.0) (4.14822e-09 2.97421e-09 0.0) (3.02649e-09 1.35753e-09 0.0) (1.57538e-09 5.15604e-10 0.0) (1.02028e-09 2.02468e-10 0.0) (7.206e-10 9.2066e-11 0.0) (5.61139e-10 3.93064e-11 0.0) (4.58721e-10 2.11794e-11 0.0) (4.15621e-10 6.91645e-12 0.0) (3.94646e-10 1.25866e-12 0.0) (4.13136e-10 -8.18141e-12 0.0) (4.53444e-10 -1.80361e-11 0.0) (5.5256e-10 -4.02826e-11 0.0) (7.07536e-10 -8.61781e-11 0.0) (1.00145e-09 -2.016e-10 0.0) (1.54682e-09 -5.01501e-10 0.0) (2.98692e-09 -1.35655e-09 0.0) (4.10148e-09 -2.95709e-09 0.0) (5.50024e-09 -7.60007e-09 0.0) (-2.58959e-07 2.97794e-07 0.0) (-4.13126e-07 1.30485e-07 0.0) (5.19152e-08 -5.27467e-08 0.0) (1.07162e-06 -1.6721e-07 0.0) (2.40358e-06 -2.2226e-07 0.0) (3.84794e-06 -2.37682e-07 0.0) (5.27841e-06 -2.301e-07 0.0) (6.62277e-06 -2.10858e-07 0.0) (7.84308e-06 -1.86679e-07 0.0) (8.92248e-06 -1.61208e-07 0.0) (9.85635e-06 -1.36204e-07 0.0) (1.06458e-05 -1.12409e-07 0.0) (1.1295e-05 -9.00215e-08 0.0) (1.1809e-05 -6.89492e-08 0.0) (1.21926e-05 -4.89576e-08 0.0) (1.24495e-05 -2.97574e-08 0.0) (1.25826e-05 -1.10319e-08 0.0) (1.2593e-05 7.55485e-09 0.0) (1.24807e-05 2.63348e-08 0.0) (1.22439e-05 4.56397e-08 0.0) (1.18796e-05 6.58028e-08 0.0) (1.13835e-05 8.71329e-08 0.0) (1.07502e-05 1.09873e-07 0.0) (9.9742e-06 1.34137e-07 0.0) (9.05066e-06 1.59774e-07 0.0) (7.97722e-06 1.86079e-07 0.0) (6.7579e-06 2.11301e-07 0.0) (5.40866e-06 2.31831e-07 0.0) (3.96592e-06 2.40892e-07 0.0) (2.50185e-06 2.26952e-07 0.0) (1.14384e-06 1.7309e-07 0.0) (9.42502e-08 5.89765e-08 0.0) (-3.97548e-07 -1.26771e-07 0.0) (-2.66143e-07 -3.02265e-07 0.0) (4.31614e-09 6.00979e-09 0.0) (3.24253e-09 2.34592e-09 0.0) (2.34913e-09 1.05252e-09 0.0) (1.24577e-09 3.95853e-10 0.0) (8.06776e-10 1.57059e-10 0.0) (5.80623e-10 7.14972e-11 0.0) (4.53485e-10 3.11985e-11 0.0) (3.7646e-10 1.67588e-11 0.0) (3.40866e-10 5.48918e-12 0.0) (3.26355e-10 1.1648e-12 0.0) (3.38445e-10 -6.5672e-12 0.0) (3.7127e-10 -1.38588e-11 0.0) (4.45121e-10 -3.19342e-11 0.0) (5.67794e-10 -6.60929e-11 0.0) (7.88439e-10 -1.55811e-10 0.0) (1.21779e-09 -3.82824e-10 0.0) (2.30983e-09 -1.05003e-09 0.0) (3.19583e-09 -2.32927e-09 0.0) (4.27277e-09 -5.97437e-09 0.0) (-1.32884e-07 1.57552e-07 0.0) (-7.35116e-07 1.69633e-07 0.0) (-1.26609e-06 1.25133e-07 0.0) (-1.60183e-06 6.40315e-08 0.0) (-1.71661e-06 8.23723e-10 0.0) (-1.60778e-06 -6.26724e-08 0.0) (-1.27547e-06 -1.24482e-07 0.0) (-7.42689e-07 -1.70409e-07 0.0) (-1.37896e-07 -1.62175e-07 0.0) (4.09993e-09 5.72957e-09 0.0) (3.06501e-09 2.23923e-09 0.0) (2.21977e-09 1.00162e-09 0.0) (1.17373e-09 3.69778e-10 0.0) (7.63157e-10 1.47816e-10 0.0) (5.50996e-10 6.51846e-11 0.0) (4.33984e-10 2.97211e-11 0.0) (3.62714e-10 1.44146e-11 0.0) (3.31772e-10 5.45134e-12 0.0) (3.19873e-10 -3.03635e-13 0.0) (3.34378e-10 -6.25243e-12 0.0) (3.68172e-10 -1.53839e-11 0.0) (4.42982e-10 -3.13996e-11 0.0) (5.64399e-10 -6.78504e-11 0.0) (7.82753e-10 -1.52863e-10 0.0) (1.20129e-09 -3.7735e-10 0.0) (2.26071e-09 -1.01015e-09 0.0) (3.10885e-09 -2.24432e-09 0.0) (4.1454e-09 -5.77759e-09 0.0) (-2.7843e-07 3.15812e-07 0.0) (-5.21825e-07 1.51007e-07 0.0) (-1.69384e-07 -3.2599e-08 0.0) (7.06642e-07 -1.43743e-07 0.0) (1.8389e-06 -1.90068e-07 0.0) (3.00257e-06 -1.91648e-07 0.0) (4.0489e-06 -1.66e-07 0.0) (4.88767e-06 -1.25376e-07 0.0) (5.46751e-06 -7.71804e-08 0.0) (5.76143e-06 -2.56015e-08 0.0) (5.75798e-06 2.68811e-08 0.0) (5.45762e-06 7.83112e-08 0.0) (4.87234e-06 1.26226e-07 0.0) (4.02973e-06 1.66441e-07 0.0) (2.98197e-06 1.91539e-07 0.0) (1.81983e-06 1.89372e-07 0.0) (6.91412e-07 1.42579e-07 0.0) (-1.78424e-07 3.142e-08 0.0) (-5.22565e-07 -1.52054e-07 0.0) (-2.7452e-07 -3.19843e-07 0.0) (6.71574e-09 9.29966e-09 0.0) (5.11782e-09 3.59948e-09 0.0) (3.65444e-09 1.68821e-09 0.0) (1.91953e-09 6.20456e-10 0.0) (1.20752e-09 2.54418e-10 0.0) (8.62017e-10 1.0483e-10 0.0) (6.54912e-10 5.06622e-11 0.0) (5.41333e-10 2.18564e-11 0.0) (4.81321e-10 1.03562e-11 0.0) (4.6517e-10 -1.14679e-12 0.0) (4.82488e-10 -8.61723e-12 0.0) (5.43878e-10 -2.46084e-11 0.0) (6.58856e-10 -4.86838e-11 0.0) (8.68246e-10 -1.09505e-10 0.0) (1.21619e-09 -2.52262e-10 0.0) (1.93235e-09 -6.29858e-10 0.0) (3.66689e-09 -1.67786e-09 0.0) (5.13666e-09 -3.61252e-09 0.0) (6.72669e-09 -9.30189e-09 0.0) (-2.95474e-07 3.4095e-07 0.0) (-4.64536e-07 1.48944e-07 0.0) (8.39777e-08 -6.13682e-08 0.0) (1.27493e-06 -1.9357e-07 0.0) (2.83823e-06 -2.5835e-07 0.0) (4.54707e-06 -2.78315e-07 0.0) (6.26045e-06 -2.72559e-07 0.0) (7.89932e-06 -2.54035e-07 0.0) (9.42219e-06 -2.30488e-07 0.0) (1.08163e-05 -2.06098e-07 0.0) (1.20812e-05 -1.82774e-07 0.0) (1.32206e-05 -1.61428e-07 0.0) (1.42433e-05 -1.42352e-07 0.0) (1.51597e-05 -1.25514e-07 0.0) (1.59792e-05 -1.10789e-07 0.0) (1.67134e-05 -9.79627e-08 0.0) (1.73723e-05 -8.6769e-08 0.0) (1.79635e-05 -7.70081e-08 0.0) (1.84947e-05 -6.84981e-08 0.0) (1.89727e-05 -6.107e-08 0.0) (1.9403e-05 -5.4597e-08 0.0) (1.97919e-05 -4.89552e-08 0.0) (2.01446e-05 -4.40175e-08 0.0) (2.04647e-05 -3.96953e-08 0.0) (2.07561e-05 -3.59131e-08 0.0) (2.10218e-05 -3.26152e-08 0.0) (2.12654e-05 -2.97475e-08 0.0) (2.14897e-05 -2.72491e-08 0.0) (2.16968e-05 -2.50805e-08 0.0) (2.1889e-05 -2.32081e-08 0.0) (2.20683e-05 -2.1601e-08 0.0) (2.22361e-05 -2.02376e-08 0.0) (2.23945e-05 -1.90982e-08 0.0) (2.25451e-05 -1.81556e-08 0.0) (2.2689e-05 -1.73927e-08 0.0) (2.28276e-05 -1.67956e-08 0.0) (2.29619e-05 -1.63502e-08 0.0) (2.30929e-05 -1.60468e-08 0.0) (2.32218e-05 -1.58787e-08 0.0) (2.33496e-05 -1.58305e-08 0.0) (2.34769e-05 -1.58921e-08 0.0) (2.36047e-05 -1.60555e-08 0.0) (2.37335e-05 -1.63116e-08 0.0) (2.38639e-05 -1.66532e-08 0.0) (2.39966e-05 -1.70783e-08 0.0) (2.41323e-05 -1.75733e-08 0.0) (2.42713e-05 -1.81282e-08 0.0) (2.44141e-05 -1.87351e-08 0.0) (2.45609e-05 -1.93843e-08 0.0) (2.47119e-05 -2.00669e-08 0.0) (2.48673e-05 -2.0782e-08 0.0) (2.50277e-05 -2.15126e-08 0.0) (2.51928e-05 -2.22453e-08 0.0) (2.53626e-05 -2.29691e-08 0.0) (2.55367e-05 -2.36733e-08 0.0) (2.57153e-05 -2.43571e-08 0.0) (2.58983e-05 -2.49995e-08 0.0) (2.60851e-05 -2.55856e-08 0.0) (2.62753e-05 -2.61044e-08 0.0) (2.64683e-05 -2.65419e-08 0.0) (2.66633e-05 -2.68868e-08 0.0) (2.686e-05 -2.71393e-08 0.0) (2.70576e-05 -2.72763e-08 0.0) (2.72553e-05 -2.72849e-08 0.0) (2.7452e-05 -2.71568e-08 0.0) (2.76468e-05 -2.68814e-08 0.0) (2.78384e-05 -2.64531e-08 0.0) (2.8026e-05 -2.5877e-08 0.0) (2.82087e-05 -2.51351e-08 0.0) (2.83852e-05 -2.42243e-08 0.0) (2.85543e-05 -2.31454e-08 0.0) (2.87148e-05 -2.18984e-08 0.0) (2.88655e-05 -2.04901e-08 0.0) (2.90055e-05 -1.89334e-08 0.0) (2.9134e-05 -1.72237e-08 0.0) (2.92497e-05 -1.53726e-08 0.0) (2.93517e-05 -1.33935e-08 0.0) (2.94393e-05 -1.13002e-08 0.0) (2.95116e-05 -9.11272e-09 0.0) (2.95683e-05 -6.84908e-09 0.0) (2.96088e-05 -4.51962e-09 0.0) (2.96327e-05 -2.14757e-09 0.0) (2.96398e-05 2.45777e-10 0.0) (2.96302e-05 2.63511e-09 0.0) (2.96038e-05 5.00467e-09 0.0) (2.95608e-05 7.3367e-09 0.0) (2.95016e-05 9.60697e-09 0.0) (2.94266e-05 1.17963e-08 0.0) (2.93366e-05 1.38856e-08 0.0) (2.92324e-05 1.58558e-08 0.0) (2.91146e-05 1.77031e-08 0.0) (2.89841e-05 1.94102e-08 0.0) (2.88419e-05 2.09621e-08 0.0) (2.86893e-05 2.23509e-08 0.0) (2.85272e-05 2.35682e-08 0.0) (2.83572e-05 2.46086e-08 0.0) (2.81803e-05 2.54833e-08 0.0) (2.79973e-05 2.61815e-08 0.0) (2.78097e-05 2.6702e-08 0.0) (2.76189e-05 2.70489e-08 0.0) (2.74259e-05 2.72253e-08 0.0) (2.72321e-05 2.72383e-08 0.0) (2.70385e-05 2.71077e-08 0.0) (2.68459e-05 2.68291e-08 0.0) (2.66554e-05 2.641e-08 0.0) (2.64681e-05 2.58611e-08 0.0) (2.62849e-05 2.51909e-08 0.0) (2.61069e-05 2.44115e-08 0.0) (2.59344e-05 2.35426e-08 0.0) (2.57681e-05 2.25819e-08 0.0) (2.56088e-05 2.15384e-08 0.0) (2.54571e-05 2.04212e-08 0.0) (2.53137e-05 1.92422e-08 0.0) (2.51787e-05 1.80162e-08 0.0) (2.50525e-05 1.67406e-08 0.0) (2.49356e-05 1.54227e-08 0.0) (2.48282e-05 1.40698e-08 0.0) (2.47307e-05 1.26869e-08 0.0) (2.46434e-05 1.12814e-08 0.0) (2.45662e-05 9.86031e-09 0.0) (2.44994e-05 8.42058e-09 0.0) (2.44431e-05 6.96663e-09 0.0) (2.43975e-05 5.50185e-09 0.0) (2.43626e-05 4.02847e-09 0.0) (2.43385e-05 2.55072e-09 0.0) (2.43251e-05 1.06932e-09 0.0) (2.43227e-05 -4.17337e-10 0.0) (2.43311e-05 -1.90599e-09 0.0) (2.43505e-05 -3.39502e-09 0.0) (2.43807e-05 -4.88234e-09 0.0) (2.44217e-05 -6.36447e-09 0.0) (2.44734e-05 -7.84406e-09 0.0) (2.4536e-05 -9.31828e-09 0.0) (2.46093e-05 -1.07818e-08 0.0) (2.4693e-05 -1.22315e-08 0.0) (2.47872e-05 -1.36627e-08 0.0) (2.48915e-05 -1.50698e-08 0.0) (2.50057e-05 -1.64559e-08 0.0) (2.51298e-05 -1.78108e-08 0.0) (2.52634e-05 -1.91247e-08 0.0) (2.54061e-05 -2.03897e-08 0.0) (2.55573e-05 -2.15978e-08 0.0) (2.57168e-05 -2.27511e-08 0.0) (2.58841e-05 -2.38326e-08 0.0) (2.60586e-05 -2.48294e-08 0.0) (2.62395e-05 -2.5732e-08 0.0) (2.64262e-05 -2.6528e-08 0.0) (2.66175e-05 -2.72065e-08 0.0) (2.68127e-05 -2.77692e-08 0.0) (2.70113e-05 -2.81931e-08 0.0) (2.72118e-05 -2.8465e-08 0.0) (2.74133e-05 -2.85753e-08 0.0) (2.76143e-05 -2.85124e-08 0.0) (2.78136e-05 -2.82685e-08 0.0) (2.80099e-05 -2.78479e-08 0.0) (2.82023e-05 -2.72291e-08 0.0) (2.83891e-05 -2.64061e-08 0.0) (2.85687e-05 -2.53761e-08 0.0) (2.87399e-05 -2.41359e-08 0.0) (2.89008e-05 -2.26883e-08 0.0) (2.90503e-05 -2.10439e-08 0.0) (2.91872e-05 -1.91924e-08 0.0) (2.93098e-05 -1.7142e-08 0.0) (2.94168e-05 -1.49023e-08 0.0) (2.9507e-05 -1.24838e-08 0.0) (2.95791e-05 -9.90342e-09 0.0) (2.9632e-05 -7.17731e-09 0.0) (2.9665e-05 -4.31162e-09 0.0) (2.96769e-05 -1.32908e-09 0.0) (2.96671e-05 1.74951e-09 0.0) (2.96351e-05 4.89821e-09 0.0) (2.95803e-05 8.10251e-09 0.0) (2.95024e-05 1.13443e-08 0.0) (2.94012e-05 1.45956e-08 0.0) (2.92768e-05 1.78341e-08 0.0) (2.91292e-05 2.10369e-08 0.0) (2.89591e-05 2.41788e-08 0.0) (2.87667e-05 2.72558e-08 0.0) (2.85522e-05 3.02437e-08 0.0) (2.83165e-05 3.31188e-08 0.0) (2.80605e-05 3.58663e-08 0.0) (2.77851e-05 3.84701e-08 0.0) (2.74917e-05 4.0916e-08 0.0) (2.7181e-05 4.32163e-08 0.0) (2.68536e-05 4.53483e-08 0.0) (2.65112e-05 4.72998e-08 0.0) (2.61551e-05 4.90683e-08 0.0) (2.57864e-05 5.06482e-08 0.0) (2.54071e-05 5.20391e-08 0.0) (2.50179e-05 5.32668e-08 0.0) (2.46195e-05 5.43127e-08 0.0) (2.42137e-05 5.51752e-08 0.0) (2.38018e-05 5.58615e-08 0.0) (2.3385e-05 5.63739e-08 0.0) (2.29651e-05 5.67213e-08 0.0) (2.25426e-05 5.6936e-08 0.0) (2.21181e-05 5.70015e-08 0.0) (2.1693e-05 5.6921e-08 0.0) (2.12686e-05 5.67025e-08 0.0) (2.08461e-05 5.63598e-08 0.0) (2.0426e-05 5.5925e-08 0.0) (2.00085e-05 5.53827e-08 0.0) (1.95949e-05 5.47383e-08 0.0) (1.91858e-05 5.40036e-08 0.0) (1.8782e-05 5.31838e-08 0.0) (1.83845e-05 5.22914e-08 0.0) (1.79934e-05 5.13549e-08 0.0) (1.76084e-05 5.03591e-08 0.0) (1.72307e-05 4.93087e-08 0.0) (1.68606e-05 4.82136e-08 0.0) (1.64984e-05 4.70777e-08 0.0) (1.61448e-05 4.59115e-08 0.0) (1.57996e-05 4.47382e-08 0.0) (1.54624e-05 4.35432e-08 0.0) (1.5134e-05 4.23299e-08 0.0) (1.48145e-05 4.11053e-08 0.0) (1.45038e-05 3.98718e-08 0.0) (1.42026e-05 3.86372e-08 0.0) (1.39103e-05 3.74195e-08 0.0) (1.36265e-05 3.62056e-08 0.0) (1.33518e-05 3.4997e-08 0.0) (1.30859e-05 3.37985e-08 0.0) (1.28288e-05 3.26109e-08 0.0) (1.25808e-05 3.14395e-08 0.0) (1.23414e-05 3.02981e-08 0.0) (1.21101e-05 2.91751e-08 0.0) (1.18872e-05 2.80701e-08 0.0) (1.16725e-05 2.69845e-08 0.0) (1.14661e-05 2.59222e-08 0.0) (1.12675e-05 2.48943e-08 0.0) (1.10764e-05 2.38911e-08 0.0) (1.08928e-05 2.29117e-08 0.0) (1.07165e-05 2.19578e-08 0.0) (1.05473e-05 2.10288e-08 0.0) (1.03854e-05 2.01263e-08 0.0) (1.02301e-05 1.92583e-08 0.0) (1.00812e-05 1.84175e-08 0.0) (9.93858e-06 1.7602e-08 0.0) (9.80215e-06 1.68127e-08 0.0) (9.67167e-06 1.60485e-08 0.0) (9.54713e-06 1.53097e-08 0.0) (9.42813e-06 1.46026e-08 0.0) (9.31434e-06 1.39218e-08 0.0) (9.20572e-06 1.3265e-08 0.0) (9.10209e-06 1.26325e-08 0.0) (9.00327e-06 1.20233e-08 0.0) (8.9092e-06 1.14366e-08 0.0) (8.81956e-06 1.08778e-08 0.0) (8.73406e-06 1.03431e-08 0.0) (8.65265e-06 9.83017e-09 0.0) (8.57516e-06 9.33912e-09 0.0) (8.50141e-06 8.86899e-09 0.0) (8.43135e-06 8.41872e-09 0.0) (8.3647e-06 7.99272e-09 0.0) (8.30121e-06 7.58907e-09 0.0) (8.24082e-06 7.20545e-09 0.0) (8.18336e-06 6.84134e-09 0.0) (8.12877e-06 6.49585e-09 0.0) (8.07678e-06 6.17327e-09 0.0) (8.02719e-06 5.8731e-09 0.0) (7.9799e-06 5.59346e-09 0.0) (7.93475e-06 5.33489e-09 0.0) (7.89158e-06 5.09755e-09 0.0) (7.85028e-06 4.88072e-09 0.0) (7.81061e-06 4.68923e-09 0.0) (7.77235e-06 4.52475e-09 0.0) (7.73535e-06 4.3866e-09 0.0) (7.69943e-06 4.27696e-09 0.0) (7.66436e-06 4.1982e-09 0.0) (7.62997e-06 4.15207e-09 0.0) (7.59595e-06 4.14706e-09 0.0) (7.56199e-06 4.19084e-09 0.0) (7.5278e-06 4.28968e-09 0.0) (7.49302e-06 4.45644e-09 0.0) (7.4572e-06 4.70988e-09 0.0) (7.41988e-06 5.07731e-09 0.0) (7.38031e-06 5.61047e-09 0.0) (7.33754e-06 6.39564e-09 0.0) (7.29034e-06 7.5851e-09 0.0) (7.23708e-06 9.42467e-09 0.0) (7.17561e-06 1.2128e-08 0.0) (7.09987e-06 1.62337e-08 0.0) (6.99156e-06 2.66817e-08 0.0) (6.86043e-06 5.20763e-08 0.0) (0.000299524 7.95784e-05 0.0) (0.000290707 9.21515e-05 0.0) (0.000253176 6.83894e-05 0.0) (0.000213426 4.72167e-05 0.0) (0.000180794 3.25658e-05 0.0) (0.000155171 2.28762e-05 0.0) (0.000135047 1.65265e-05 0.0) (0.000119132 1.23232e-05 0.0) (0.000106406 9.47276e-06 0.0) (9.6085e-05 7.47989e-06 0.0) (8.75943e-05 6.04203e-06 0.0) (8.05164e-05 4.97314e-06 0.0) (7.45467e-05 4.15675e-06 0.0) (6.94606e-05 3.51823e-06 0.0) (6.50899e-05 3.00843e-06 0.0) (6.13062e-05 2.59409e-06 0.0) (5.80107e-05 2.2521e-06 0.0) (5.51259e-05 1.96602e-06 0.0) (5.25902e-05 1.72388e-06 0.0) (5.03541e-05 1.51677e-06 0.0) (4.83773e-05 1.33794e-06 0.0) (4.66269e-05 1.18222e-06 0.0) (4.50755e-05 1.04555e-06 0.0) (4.37003e-05 9.24751e-07 0.0) (4.24818e-05 8.1725e-07 0.0) (4.14041e-05 7.20982e-07 0.0) (4.0453e-05 6.3426e-07 0.0) (3.96169e-05 5.5569e-07 0.0) (3.88853e-05 4.84116e-07 0.0) (3.82497e-05 4.18574e-07 0.0) (3.77022e-05 3.58237e-07 0.0) (3.72363e-05 3.02419e-07 0.0) (3.68462e-05 2.50536e-07 0.0) (3.65269e-05 2.02071e-07 0.0) (3.62739e-05 1.56579e-07 0.0) (3.60834e-05 1.13685e-07 0.0) (3.59521e-05 7.30638e-08 0.0) (3.5877e-05 3.44179e-08 0.0) (3.58554e-05 -2.5123e-09 0.0) (3.58853e-05 -3.79452e-08 0.0) (3.59646e-05 -7.20743e-08 0.0) (3.60917e-05 -1.05083e-07 0.0) (3.6265e-05 -1.37118e-07 0.0) (3.64832e-05 -1.68312e-07 0.0) (3.67453e-05 -1.98786e-07 0.0) (3.70504e-05 -2.28648e-07 0.0) (3.73975e-05 -2.57983e-07 0.0) (3.7786e-05 -2.86863e-07 0.0) (3.82153e-05 -3.15362e-07 0.0) (3.86848e-05 -3.43529e-07 0.0) (3.91941e-05 -3.71403e-07 0.0) (3.97427e-05 -3.9902e-07 0.0) (4.03304e-05 -4.26408e-07 0.0) (4.09568e-05 -4.53574e-07 0.0) (4.16213e-05 -4.8052e-07 0.0) (4.23238e-05 -5.07243e-07 0.0) (4.3064e-05 -5.33732e-07 0.0) (4.38415e-05 -5.59957e-07 0.0) (4.46555e-05 -5.85884e-07 0.0) (4.55061e-05 -6.11478e-07 0.0) (4.63923e-05 -6.36683e-07 0.0) (4.73136e-05 -6.61437e-07 0.0) (4.82692e-05 -6.85676e-07 0.0) (4.92586e-05 -7.09327e-07 0.0) (5.02807e-05 -7.32301e-07 0.0) (5.13342e-05 -7.54503e-07 0.0) (5.24182e-05 -7.7584e-07 0.0) (5.35314e-05 -7.96206e-07 0.0) (5.46723e-05 -8.15486e-07 0.0) (5.58389e-05 -8.33561e-07 0.0) (5.703e-05 -8.50315e-07 0.0) (5.82432e-05 -8.65617e-07 0.0) (5.94763e-05 -8.79341e-07 0.0) (6.07272e-05 -8.91358e-07 0.0) (6.19934e-05 -9.01543e-07 0.0) (6.32722e-05 -9.09761e-07 0.0) (6.45605e-05 -9.15891e-07 0.0) (6.58557e-05 -9.19816e-07 0.0) (6.71544e-05 -9.21417e-07 0.0) (6.8453e-05 -9.20593e-07 0.0) (6.97484e-05 -9.17249e-07 0.0) (7.10371e-05 -9.11299e-07 0.0) (7.23151e-05 -9.02671e-07 0.0) (7.35787e-05 -8.91313e-07 0.0) (7.4824e-05 -8.77187e-07 0.0) (7.60474e-05 -8.60266e-07 0.0) (7.72449e-05 -8.40548e-07 0.0) (7.84124e-05 -8.18055e-07 0.0) (7.95463e-05 -7.92817e-07 0.0) (8.06427e-05 -7.64891e-07 0.0) (8.16979e-05 -7.34363e-07 0.0) (8.27083e-05 -7.01325e-07 0.0) (8.36707e-05 -6.65888e-07 0.0) (8.45818e-05 -6.28188e-07 0.0) (8.54383e-05 -5.88386e-07 0.0) (8.62377e-05 -5.46642e-07 0.0) (8.69773e-05 -5.03131e-07 0.0) (8.76548e-05 -4.58046e-07 0.0) (8.8268e-05 -4.116e-07 0.0) (8.88153e-05 -3.63986e-07 0.0) (8.92952e-05 -3.15422e-07 0.0) (8.97064e-05 -2.66131e-07 0.0) (9.00482e-05 -2.16324e-07 0.0) (9.03199e-05 -1.66206e-07 0.0) (9.05213e-05 -1.15993e-07 0.0) (9.06522e-05 -6.58965e-08 0.0) (9.0713e-05 -1.60967e-08 0.0) (9.07042e-05 3.32141e-08 0.0) (9.06267e-05 8.18543e-08 0.0) (9.04813e-05 1.29673e-07 0.0) (9.02693e-05 1.76533e-07 0.0) (8.99921e-05 2.22304e-07 0.0) (8.96513e-05 2.66874e-07 0.0) (8.92486e-05 3.10166e-07 0.0) (8.87856e-05 3.52128e-07 0.0) (8.82643e-05 3.92715e-07 0.0) (8.76867e-05 4.31917e-07 0.0) (8.70544e-05 4.69768e-07 0.0) (8.63693e-05 5.06311e-07 0.0) (8.56334e-05 5.41629e-07 0.0) (8.4848e-05 5.75848e-07 0.0) (8.40144e-05 6.09129e-07 0.0) (8.3134e-05 6.41661e-07 0.0) (8.22077e-05 6.73677e-07 0.0) (8.12359e-05 7.05461e-07 0.0) (8.02185e-05 7.37341e-07 0.0) (7.91553e-05 7.69682e-07 0.0) (7.80457e-05 8.02904e-07 0.0) (7.68877e-05 8.37494e-07 0.0) (7.56793e-05 8.73981e-07 0.0) (7.44178e-05 9.12962e-07 0.0) (7.30992e-05 9.55115e-07 0.0) (7.17186e-05 1.00119e-06 0.0) (7.02704e-05 1.05203e-06 0.0) (6.87479e-05 1.10854e-06 0.0) (6.71426e-05 1.17179e-06 0.0) (6.5445e-05 1.24293e-06 0.0) (6.36444e-05 1.32321e-06 0.0) (6.17278e-05 1.41409e-06 0.0) (5.96803e-05 1.51711e-06 0.0) (5.74857e-05 1.63396e-06 0.0) (5.51259e-05 1.76639e-06 0.0) (5.25803e-05 1.9162e-06 0.0) (4.98262e-05 2.08507e-06 0.0) (4.68403e-05 2.27426e-06 0.0) (4.3599e-05 2.48411e-06 0.0) (4.00783e-05 2.71336e-06 0.0) (3.62592e-05 2.95745e-06 0.0) (3.21314e-05 3.20623e-06 0.0) (2.7699e-05 3.44001e-06 0.0) (2.29934e-05 3.62319e-06 0.0) (1.80926e-05 3.69533e-06 0.0) (1.31461e-05 3.56153e-06 0.0) (8.41075e-06 3.09077e-06 0.0) (4.28729e-06 2.14949e-06 0.0) (1.28812e-06 7.30101e-07 0.0) (-2.14638e-07 -6.60944e-07 0.0) (5.12238e-09 3.89057e-09 0.0) (5.18385e-09 2.97742e-09 0.0) (4.98006e-09 2.12221e-09 0.0) (4.19604e-09 1.29401e-09 0.0) (3.3625e-09 7.77613e-10 0.0) (2.88623e-09 4.56784e-10 0.0) (2.46418e-09 2.74873e-10 0.0) (2.25494e-09 1.49029e-10 0.0) (2.0803e-09 7.20432e-11 0.0) (2.06819e-09 -3.01225e-13 0.0) (2.07371e-09 -6.12971e-11 0.0) (2.2424e-09 -1.49241e-10 0.0) (2.44362e-09 -2.61019e-10 0.0) (2.86049e-09 -4.55864e-10 0.0) (3.3271e-09 -7.56769e-10 0.0) (4.1588e-09 -1.29248e-09 0.0) (4.93943e-09 -2.09745e-09 0.0) (5.14876e-09 -2.98826e-09 0.0) (5.07987e-09 -3.88048e-09 0.0) (-1.99767e-07 6.19077e-07 0.0) (9.02579e-07 -4.8527e-07 0.0) (3.22584e-06 -1.64678e-06 0.0) (6.46365e-06 -2.41846e-06 0.0) (1.01817e-05 -2.79182e-06 0.0) (1.40308e-05 -2.87247e-06 0.0) (1.77816e-05 -2.76851e-06 0.0) (2.12952e-05 -2.55985e-06 0.0) (2.44929e-05 -2.29828e-06 0.0) (2.73354e-05 -2.01488e-06 0.0) (2.98085e-05 -1.72696e-06 0.0) (3.19105e-05 -1.44346e-06 0.0) (3.3647e-05 -1.16825e-06 0.0) (3.50272e-05 -9.02113e-07 0.0) (3.60602e-05 -6.44072e-07 0.0) (3.67534e-05 -3.92255e-07 0.0) (3.71122e-05 -1.44246e-07 0.0) (3.71393e-05 1.02754e-07 0.0) (3.68341e-05 3.51529e-07 0.0) (3.61932e-05 6.04805e-07 0.0) (3.52101e-05 8.65152e-07 0.0) (3.38757e-05 1.13464e-06 0.0) (3.21798e-05 1.41431e-06 0.0) (3.01125e-05 1.70352e-06 0.0) (2.76659e-05 1.99872e-06 0.0) (2.4839e-05 2.29124e-06 0.0) (2.16448e-05 2.56378e-06 0.0) (1.81209e-05 2.78521e-06 0.0) (1.43425e-05 2.90325e-06 0.0) (1.04484e-05 2.83633e-06 0.0) (6.67067e-06 2.47366e-06 0.0) (3.36212e-06 1.70509e-06 0.0) (9.66941e-07 5.3203e-07 0.0) (-1.96103e-07 -6.04916e-07 0.0) (4.07415e-09 3.12367e-09 0.0) (4.08621e-09 2.35802e-09 0.0) (3.94092e-09 1.64939e-09 0.0) (3.30435e-09 9.96126e-10 0.0) (2.67986e-09 6.00661e-10 0.0) (2.29109e-09 3.53131e-10 0.0) (1.98217e-09 2.13692e-10 0.0) (1.80582e-09 1.15328e-10 0.0) (1.68423e-09 5.63031e-11 0.0) (1.66183e-09 -6.67596e-14 0.0) (1.67774e-09 -4.62584e-11 0.0) (1.79352e-09 -1.1498e-10 0.0) (1.96189e-09 -2.00757e-10 0.0) (2.26575e-09 -3.51426e-10 0.0) (2.64477e-09 -5.81194e-10 0.0) (3.26733e-09 -9.92946e-10 0.0) (3.89958e-09 -1.62574e-09 0.0) (4.05057e-09 -2.36567e-09 0.0) (4.03091e-09 -3.11399e-09 0.0) (-2.68507e-07 9.20097e-07 0.0) (-1.33719e-06 1.06216e-06 0.0) (-2.21933e-06 8.04994e-07 0.0) (-2.75685e-06 4.18201e-07 0.0) (-2.93879e-06 5.60964e-09 0.0) (-2.76824e-06 -4.09318e-07 0.0) (-2.23689e-06 -8.02256e-07 0.0) (-1.35149e-06 -1.06699e-06 0.0) (-2.72935e-07 -9.31882e-07 0.0) (3.87661e-09 3.00251e-09 0.0) (3.89649e-09 2.26409e-09 0.0) (3.74643e-09 1.56133e-09 0.0) (3.14705e-09 9.4424e-10 0.0) (2.54949e-09 5.60117e-10 0.0) (2.1902e-09 3.33065e-10 0.0) (1.8979e-09 1.95251e-10 0.0) (1.73984e-09 1.07361e-10 0.0) (1.62709e-09 4.65883e-11 0.0) (1.61487e-09 -2.61847e-12 0.0) (1.63365e-09 -5.17138e-11 0.0) (1.75331e-09 -1.13592e-10 0.0) (1.91825e-09 -2.02284e-10 0.0) (2.21805e-09 -3.42279e-10 0.0) (2.58407e-09 -5.71062e-10 0.0) (3.1873e-09 -9.57491e-10 0.0) (3.78665e-09 -1.57055e-09 0.0) (3.93662e-09 -2.26825e-09 0.0) (3.91658e-09 -3.0002e-09 0.0) (-2.45371e-07 7.6388e-07 0.0) (6.43238e-07 -2.79627e-07 0.0) (2.69242e-06 -1.38848e-06 0.0) (5.54864e-06 -2.06977e-06 0.0) (8.7118e-06 -2.30328e-06 0.0) (1.1776e-05 -2.19775e-06 0.0) (1.44621e-05 -1.86896e-06 0.0) (1.6592e-05 -1.40507e-06 0.0) (1.8058e-05 -8.65168e-07 0.0) (1.88001e-05 -2.87604e-07 0.0) (1.87916e-05 3.00787e-07 0.0) (1.80336e-05 8.76909e-07 0.0) (1.65541e-05 1.41412e-06 0.0) (1.44143e-05 1.87414e-06 0.0) (1.17237e-05 2.19794e-06 0.0) (8.66189e-06 2.29805e-06 0.0) (5.5068e-06 2.05974e-06 0.0) (2.66484e-06 1.37588e-06 0.0) (6.33036e-07 2.68355e-07 0.0) (-2.44656e-07 -7.74348e-07 0.0) (6.24735e-09 4.64804e-09 0.0) (6.2139e-09 3.63226e-09 0.0) (6.09475e-09 2.59934e-09 0.0) (5.02034e-09 1.60937e-09 0.0) (4.08917e-09 9.43301e-10 0.0) (3.42868e-09 5.66019e-10 0.0) (2.97666e-09 3.26362e-10 0.0) (2.6631e-09 1.87257e-10 0.0) (2.50496e-09 7.89259e-11 0.0) (2.44275e-09 1.7834e-12 0.0) (2.50817e-09 -8.73764e-11 0.0) (2.66853e-09 -1.83434e-10 0.0) (2.98655e-09 -3.36859e-10 0.0) (3.43956e-09 -5.61311e-10 0.0) (4.10628e-09 -9.5879e-10 0.0) (5.03412e-09 -1.60105e-09 0.0) (6.11305e-09 -2.61597e-09 0.0) (6.22668e-09 -3.61602e-09 0.0) (6.26763e-09 -4.6618e-09 0.0) (-2.24488e-07 6.958e-07 0.0) (1.07734e-06 -5.8451e-07 0.0) (3.79418e-06 -1.92964e-06 0.0) (7.58213e-06 -2.83504e-06 0.0) (1.19645e-05 -3.29256e-06 0.0) (1.6547e-05 -3.42261e-06 0.0) (2.10765e-05 -3.3491e-06 0.0) (2.54037e-05 -3.16348e-06 0.0) (2.94435e-05 -2.92527e-06 0.0) (3.31686e-05 -2.66975e-06 0.0) (3.6576e-05 -2.41654e-06 0.0) (3.96699e-05 -2.17666e-06 0.0) (4.24684e-05 -1.95512e-06 0.0) (4.49939e-05 -1.75371e-06 0.0) (4.72671e-05 -1.57267e-06 0.0) (4.9316e-05 -1.41069e-06 0.0) (5.1165e-05 -1.26616e-06 0.0) (5.28323e-05 -1.13771e-06 0.0) (5.43372e-05 -1.02374e-06 0.0) (5.56973e-05 -9.22706e-07 0.0) (5.69267e-05 -8.33354e-07 0.0) (5.80417e-05 -7.54246e-07 0.0) (5.90564e-05 -6.84161e-07 0.0) (5.99804e-05 -6.22205e-07 0.0) (6.08241e-05 -5.67493e-07 0.0) (6.15956e-05 -5.19327e-07 0.0) (6.23045e-05 -4.76939e-07 0.0) (6.2959e-05 -4.39692e-07 0.0) (6.35649e-05 -4.07125e-07 0.0) (6.41283e-05 -3.78787e-07 0.0) (6.46546e-05 -3.54281e-07 0.0) (6.51482e-05 -3.33293e-07 0.0) (6.56146e-05 -3.15476e-07 0.0) (6.60584e-05 -3.00542e-07 0.0) (6.6483e-05 -2.88276e-07 0.0) (6.68919e-05 -2.78464e-07 0.0) (6.72883e-05 -2.70915e-07 0.0) (6.76747e-05 -2.65463e-07 0.0) (6.80546e-05 -2.61936e-07 0.0) (6.84309e-05 -2.60184e-07 0.0) (6.88056e-05 -2.60072e-07 0.0) (6.91809e-05 -2.61466e-07 0.0) (6.95588e-05 -2.6424e-07 0.0) (6.99404e-05 -2.68264e-07 0.0) (7.03281e-05 -2.73419e-07 0.0) (7.0724e-05 -2.79587e-07 0.0) (7.11286e-05 -2.86632e-07 0.0) (7.15433e-05 -2.94427e-07 0.0) (7.19689e-05 -3.02836e-07 0.0) (7.24055e-05 -3.11712e-07 0.0) (7.28543e-05 -3.20932e-07 0.0) (7.33163e-05 -3.30353e-07 0.0) (7.37911e-05 -3.39809e-07 0.0) (7.42786e-05 -3.4914e-07 0.0) (7.47777e-05 -3.58173e-07 0.0) (7.52886e-05 -3.66767e-07 0.0) (7.58113e-05 -3.74751e-07 0.0) (7.63441e-05 -3.8194e-07 0.0) (7.68858e-05 -3.88161e-07 0.0) (7.7435e-05 -3.93244e-07 0.0) (7.7989e-05 -3.97016e-07 0.0) (7.85468e-05 -3.99337e-07 0.0) (7.91071e-05 -4.00037e-07 0.0) (7.96666e-05 -3.98966e-07 0.0) (8.02229e-05 -3.95992e-07 0.0) (8.07733e-05 -3.90997e-07 0.0) (8.1314e-05 -3.83892e-07 0.0) (8.1843e-05 -3.74611e-07 0.0) (8.23579e-05 -3.6306e-07 0.0) (8.28549e-05 -3.49219e-07 0.0) (8.33307e-05 -3.33084e-07 0.0) (8.37822e-05 -3.14678e-07 0.0) (8.42058e-05 -2.94083e-07 0.0) (8.45991e-05 -2.71369e-07 0.0) (8.49599e-05 -2.46594e-07 0.0) (8.52847e-05 -2.19928e-07 0.0) (8.55712e-05 -1.91541e-07 0.0) (8.58171e-05 -1.61626e-07 0.0) (8.60201e-05 -1.30445e-07 0.0) (8.61792e-05 -9.81988e-08 0.0) (8.62931e-05 -6.50832e-08 0.0) (8.63605e-05 -3.14136e-08 0.0) (8.63811e-05 2.53128e-09 0.0) (8.63545e-05 3.641