/*--------------------------------*- C++ -*----------------------------------*\
| =========                 |                                                 |
| \\      /  F ield         | OpenFOAM: The Open Source CFD Toolbox           |
|  \\    /   O peration     | Version:  2512                                  |
|   \\  /    A nd           | Website:  www.openfoam.com                      |
|    \\/     M anipulation  |                                                 |
\*---------------------------------------------------------------------------*/
FoamFile
{
    version     2.0;
    format      ascii;
    arch        "LSB;label=32;scalar=64";
    class       volScalarField;
    location    "2";
    object      B;
}
// * * * * * * * * * * * * * * * * * * * * * * * * * * * * * * * * * * * * * //

dimensions      [0 -3 0 0 1 0 0];

internalField nonuniform List<scalar> 13898(-6.89349e-121 1.2712e-117 -7.7912e-111 2.54264e-104 -5.65449e-98 1.01082e-91 -1.59613e-85 2.3566e-79 -3.36467e-73 4.73422e-67 -6.62807e-61 9.26073e-55 -1.28656e-48 9.21013e-38 8.36688e-21 9.63206e-15 1.65561e-05 6000.0 6000.0 6000.0 6000.0 6.50591e-46 8.58459e-43 8.49145e-43 4.92765e-40 2.92508e-34 1.09941e-28 3.73259e-23 6.87797e-19 2.0817e-16 9.37363e-15 4.99759e-14 5.52083e-14 2.64495e-14 9.49096e-16 -4.41405e-18 -6.54718e-18 -5.64623e-18 -4.45561e-18 -3.2451e-18 -2.11051e-18 -1.12583e-18 -4.26163e-19 -9.22163e-20 -8.17264e-21 -1.78681e-22 -3.55923e-25 -5.42168e-29 -2.21525e-33 -8.6767e-38 -1.23242e-41 -3.28831e-43 -5.60297e-45 -1.59137e-47 -2.33965e-51 6.8335e-53 2.43235e-53 2.75101e-55 8.07286e-58 4.30305e-62 5.15213e-67 5.37889e-72 4.99823e-77 -1.72962e-76 -1.03214e-80 -3.00287e-86 -1.91809e-89 -8.48889e-96 -8.26178e-91 -1.18821e-87 -2.64737e-88 2.69482e-18 1.17509e-22 1.23106e-23 5.30199e-33 7.78659e-31 3.64537e-25 6.74818e-20 7.53775e-17 2.22131e-15 4.69863e-15 1.85008e-15 3.96419e-17 -1.76065e-20 -1.03073e-19 -9.31031e-20 -6.74676e-20 -3.30502e-20 -9.67393e-21 -1.75041e-21 -2.40386e-22 -1.69489e-23 -3.19138e-25 -8.20195e-28 -1.74274e-31 -7.10517e-36 -2.54766e-40 3.74201e-42 1.08305e-42 3.41172e-44 6.06101e-47 3.94913e-51 8.16704e-56 1.64078e-60 3.23178e-65 -1.96693e-65 -3.62016e-67 -1.49423e-70 -1.32748e-75 5.47032e-79 1.52755e-80 3.52951e-84 -4.83563e-51 2.54798e-35 8.99196e-30 1.0136e-26 9.22882e-26 3.23788e-25 5.17509e-29 4.39401e-31 6.03782e-35 6000.0 6000.0 6000.0 6000.0 0.00154437 4.44636e-10 8.23405e-20 1.77247e-29 4.33852e-39 3.08523e-39 2.48664e-40 4.41585e-45 3.82569e-48 4.5812e-48 2.45444e-50 -1.42989e-52 -9.53454e-53 -9.55784e-54 -7.77684e-56 -3.10878e-59 -4.80505e-64 -7.02228e-69 2.06938e-115 -6.35933e-113 2.9186e-106 -1.40903e-99 5.50658e-93 -1.74476e-86 4.69759e-80 -1.12835e-73 2.51347e-67 -5.33503e-61 1.09802e-54 -2.21389e-48 4.39495e-42 -8.6808e-36 3.81929e-23 4.15854e-12 1.65427e-05 6000.0 6000.0 6000.0 6000.0 2.85926e-43 1.77788e-32 1.41675e-32 3.8227e-34 1.50588e-28 4.43531e-23 1.89887e-17 1.72542e-13 8.14897e-12 4.36502e-11 4.8078e-11 1.58227e-11 1.21377e-12 -2.02103e-14 -4.49967e-14 -4.22847e-14 -3.65815e-14 -2.93175e-14 -2.17912e-14 -1.48289e-14 -8.93745e-15 -4.39434e-15 -1.56374e-15 -3.38738e-16 -3.4216e-17 -1.10195e-18 -8.87321e-21 -1.39053e-23 -3.39143e-27 -2.88277e-31 -1.83078e-33 -1.34224e-33 -9.40557e-34 -4.26784e-34 -8.16436e-35 -3.97448e-36 -2.96139e-38 -2.15715e-41 -1.13112e-45 -3.86016e-50 3.02327e-53 1.12539e-54 1.47525e-57 4.69114e-62 3.99378e-67 2.07514e-72 5.45016e-78 6.81287e-84 -5.50597e-81 -1.09892e-84 4.74481e-14 4.42852e-10 4.60266e-13 1.79899e-23 2.4731e-24 1.35166e-18 3.85501e-14 3.94644e-12 7.93652e-12 2.15991e-12 8.14232e-14 -7.44036e-16 -2.15544e-15 -2.48629e-15 -2.34452e-15 -1.86537e-15 -1.12335e-15 -4.6536e-16 -1.23864e-16 -2.24505e-17 -3.93023e-18 -7.43564e-19 -9.15463e-20 -4.18637e-21 -4.33944e-23 -6.80301e-26 -1.17771e-29 -7.04589e-34 2.89425e-38 4.81803e-38 1.8143e-38 1.45541e-39 1.53192e-41 1.35334e-44 7.32893e-49 2.48918e-53 7.45129e-58 -2.02501e-60 -3.41957e-61 -2.63024e-63 -3.31243e-67 -3.02476e-55 1.628e-37 2.03004e-26 1.34223e-22 1.01002e-20 1.85899e-20 2.87149e-23 8.44299e-25 1.25033e-30 6000.0 6000.0 6000.0 6000.0 0.00159949 4.55152e-10 8.45102e-20 1.84086e-29 1.24311e-32 4.04479e-32 1.90938e-33 3.16676e-38 7.55657e-43 9.0752e-46 -1.0981e-46 -2.17301e-46 -1.86487e-46 -2.2479e-47 -2.15342e-49 -9.32435e-53 -1.09787e-57 -1.2121e-62 -1.0654e-109 4.739e-108 -1.00214e-101 5.21612e-95 -3.02712e-88 1.38141e-81 -4.97748e-75 1.63572e-68 -5.07269e-62 1.51037e-55 -4.38295e-49 1.25422e-42 -3.57201e-36 1.0215e-29 -3.22266e-23 4.3123e-14 5.32915e-09 0.00103227 6000.0 6000.0 1.50347e-22 1.24604e-22 1.1662e-29 1.0096e-24 1.41461e-19 2.56606e-12 7.40223e-10 3.5578e-09 3.35192e-09 9.68648e-10 9.8984e-11 8.26769e-13 -3.81491e-12 -3.74529e-12 -3.46027e-12 -2.98221e-12 -2.40435e-12 -1.81298e-12 -1.2677e-12 -8.11213e-13 -4.53839e-13 -2.05517e-13 -6.92651e-14 -1.5435e-14 -1.90694e-15 -1.05773e-16 -2.03983e-18 -1.06021e-20 -1.18178e-23 -3.00856e-27 -2.56475e-28 -1.4145e-28 -8.45065e-29 -5.67262e-29 -3.90532e-29 -1.76283e-29 -3.26156e-30 -1.44358e-31 -8.89839e-34 -4.70634e-37 -1.8449e-41 -5.57985e-46 -1.25711e-50 -1.98356e-55 -2.01002e-60 -1.13365e-65 -2.70767e-71 -1.91673e-77 0.0707637 0.075834 0.000499377 2.25602e-08 9.97324e-15 6.20301e-10 1.84747e-09 4.38531e-10 1.96375e-11 -7.69812e-14 -5.30991e-13 -6.45659e-13 -6.70016e-13 -6.19733e-13 -4.97628e-13 -3.29002e-13 -1.68496e-13 -6.29971e-14 -1.65759e-14 -3.3481e-15 -6.70528e-16 -1.38823e-16 -2.23624e-17 -1.83916e-18 -4.9812e-20 -2.98561e-22 -2.85419e-25 -3.42519e-29 -2.47471e-33 -1.72318e-37 3.63148e-40 2.86735e-40 1.69089e-40 7.43302e-41 1.68971e-41 1.0578e-42 9.77147e-45 6.22213e-48 1.84986e-52 5.93575e-57 -3.44365e-56 2.66405e-41 4.72007e-28 2.12622e-21 1.20887e-17 1.06698e-15 5.92036e-18 1.14656e-19 6000.0 6000.0 6000.0 0.00164175 4.83965e-10 9.40673e-20 1.76905e-28 1.50924e-25 7.53689e-26 6.4911e-29 1.74355e-34 4.01638e-40 -5.26656e-42 -3.30885e-41 -7.80413e-41 -9.37228e-41 -1.34039e-41 -7.4151e-44 -7.87084e-48 -9.12168e-53 -1.15872e-57 -3.91673e-109 3.48587e-107 -4.76413e-101 1.4917e-94 -4.85537e-88 1.50618e-81 -4.8754e-75 1.52619e-68 -4.55069e-62 1.3035e-55 -3.5954e-49 9.47917e-43 -2.33586e-36 5.14077e-30 -9.6163e-24 1.24044e-17 -6.34009e-14 1.42891e-08 0.00163642 6000.0 3.03937e-08 3.0699e-10 3.52231e-14 1.63504e-19 1.24727e-14 9.89749e-09 9.79916e-08 7.82097e-08 1.85593e-08 1.67404e-09 3.97027e-11 -2.33421e-11 -2.33178e-11 -2.22176e-11 -1.99853e-11 -1.70176e-11 -1.37143e-11 -1.04109e-11 -7.3949e-12 -4.8565e-12 -2.90982e-12 -1.51367e-12 -6.58643e-13 -2.29706e-13 -6.00598e-14 -1.06065e-14 -1.13116e-15 -7.25542e-17 -4.92755e-18 -8.0609e-19 -1.82382e-19 -2.79043e-20 -1.70377e-21 -2.75081e-23 -1.0231e-24 -8.47983e-25 -6.35132e-25 -2.70209e-25 -3.90625e-26 -1.08257e-27 -3.29485e-30 -6.68205e-34 -1.96314e-38 -4.1641e-43 -5.89244e-48 -4.90222e-53 -1.44314e-58 5.45102e-61 6000.0 5999.97 0.0969028 1.48819e-06 1.13724e-10 1.53181e-07 3.7914e-08 1.64893e-09 1.17128e-11 -9.00644e-12 -1.04614e-11 -1.0619e-11 -1.00322e-11 -8.64278e-12 -6.68188e-12 -4.56031e-12 -2.64386e-12 -1.24974e-12 -4.6231e-13 -1.30381e-13 -2.86177e-14 -5.18343e-15 -7.86164e-16 -8.60287e-17 -4.97988e-18 -1.04513e-19 -5.54449e-22 -5.49841e-25 -9.74674e-29 -7.38854e-30 -3.71852e-30 -1.33328e-30 -1.8256e-31 -5.55723e-33 -2.31417e-35 -8.74068e-39 -3.13035e-43 3.89922e-44 6.12316e-45 4.69589e-47 8.30644e-51 7.0227e-46 4.91143e-31 5.3428e-23 3.32136e-16 6.06559e-11 8.75701e-13 4.04045e-17 6000.0 6000.0 0.00126909 1.60272e-05 1.78011e-11 2.91186e-21 6.53174e-21 3.28766e-20 1.1846e-22 2.67244e-27 1.31177e-32 -7.11325e-38 -6.57998e-37 -3.66185e-36 -1.11937e-35 -3.73377e-36 -8.7721e-38 -7.01476e-41 -1.69337e-45 -3.07868e-50 -5.87908e-55 -3.53264e-109 7.79693e-107 -9.37658e-101 1.82678e-94 -4.66195e-88 1.33575e-81 -3.91275e-75 1.10612e-68 -3.00871e-62 7.79412e-56 -1.87876e-49 4.02177e-43 -7.023e-37 8.67881e-31 -5.9632e-25 4.63507e-22 -6.42627e-15 1.28598e-09 1.78683e-05 0.00227455 0.616834 0.54754 0.0129081 9.03673e-06 4.0824e-10 1.32805e-06 1.16008e-06 2.48981e-07 1.74193e-08 3.8162e-10 -3.40774e-11 -3.62362e-11 -3.52922e-11 -3.2716e-11 -2.88698e-11 -2.43405e-11 -1.95489e-11 -1.48101e-11 -1.05625e-11 -6.93731e-12 -4.29175e-12 -2.56809e-12 -1.44031e-12 -7.61835e-13 -3.90603e-13 -2.08838e-13 -1.18461e-13 -6.67327e-14 -3.40175e-14 -1.43835e-14 -4.63358e-15 -1.02047e-15 -1.29947e-16 -7.52473e-18 -1.53478e-19 -2.58665e-21 -1.02516e-21 -6.44397e-22 -2.62637e-22 -3.91393e-23 -1.17099e-24 -3.93307e-27 -8.73648e-31 -2.44901e-35 -4.7364e-40 -5.81568e-45 -3.34566e-50 -5.35693e-56 6000.0 6000.0 5999.99 0.112151 4.27735e-06 2.11419e-06 9.80758e-08 6.56052e-10 -2.97939e-11 -3.39769e-11 -3.31956e-11 -3.05438e-11 -2.60531e-11 -2.05853e-11 -1.50975e-11 -1.03504e-11 -6.57031e-12 -3.72536e-12 -1.81297e-12 -7.14503e-13 -2.12159e-13 -4.43385e-14 -6.11015e-15 -5.13734e-16 -2.32394e-17 -4.68531e-19 -3.87501e-21 -3.23053e-22 -2.0242e-22 -1.27321e-22 -5.34035e-23 -1.01934e-23 -5.7336e-25 -6.12813e-27 -8.4333e-30 -1.07406e-33 -5.185e-38 -2.03526e-42 5.56996e-45 9.84395e-46 7.75199e-48 4.24216e-47 3.23907e-35 5.10298e-26 2.28465e-11 2.7223e-06 3.61413e-08 -2.9093e-15 6000.0 6000.0 0.00468961 2.02437e-09 1.2961e-14 1.05987e-15 1.04699e-15 7.69655e-18 5.43109e-22 4.58189e-27 4.99149e-32 -1.92887e-32 -4.16391e-32 -5.83846e-32 -2.405e-32 -1.28409e-33 -4.39812e-36 -6.90716e-40 -1.7358e-44 -4.57429e-49 -1.2002e-53 -1.20088e-109 7.73439e-107 -9.89964e-101 1.75902e-94 -3.97175e-88 9.89318e-82 -2.46414e-75 5.99163e-69 -1.39703e-62 3.01475e-56 -5.66142e-50 8.3196e-44 -8.0409e-38 3.91734e-32 -6.11295e-27 4.11083e-26 -3.42556e-17 3.37918e-18 2.38523e-12 1.12267e-09 6000.0 5999.75 0.695797 1.59927e-05 5.51587e-07 1.61858e-05 2.95455e-06 1.09606e-07 9.64374e-10 -3.28571e-11 -3.41903e-11 -3.23479e-11 -2.8823e-11 -2.45386e-11 -2.01904e-11 -1.60738e-11 -1.22458e-11 -8.81991e-12 -6.33158e-12 -4.83173e-12 -3.42628e-12 -3.41846e-12 -3.76768e-12 -4.71155e-12 -5.04568e-12 -4.85297e-12 -4.2308e-12 -3.1897e-12 -2.02003e-12 -1.05036e-12 -4.35249e-13 -1.37296e-13 -3.05997e-14 -4.29489e-15 -3.2752e-16 -1.19466e-17 -2.51071e-19 -1.85455e-20 -4.69317e-21 -9.38803e-22 -6.62485e-23 -8.4317e-25 -1.06415e-27 -7.77675e-32 -1.26165e-36 1.38372e-37 3.7089e-39 3.45359e-43 6000.0 6000.0 6000.0 6000.0 0.00395708 5.05253e-06 3.64319e-09 -4.77883e-11 -4.93905e-11 -4.81287e-11 -4.37115e-11 -3.76566e-11 -2.99573e-11 -2.22161e-11 -1.57213e-11 -1.07731e-11 -7.58228e-12 -5.2736e-12 -3.41683e-12 -1.90581e-12 -8.44714e-13 -2.70656e-13 -5.51499e-14 -5.97802e-15 -2.78912e-16 -6.97537e-18 -2.65494e-18 -2.53996e-18 -2.32509e-18 -1.80953e-18 -1.03562e-18 -3.55595e-19 -5.40443e-20 -2.45783e-21 -2.21523e-23 -2.70993e-26 -3.21804e-30 -1.54505e-34 -5.89919e-39 -1.67234e-43 -2.0098e-48 -3.40572e-46 3.25333e-36 1.57405e-30 1.27989e-06 0.136319 5999.64 5999.63 6000.0 6000.0 6000.0 0.00614426 3.72677e-08 7.15007e-10 3.32783e-13 7.5728e-18 2.84413e-22 5.53645e-26 -4.82832e-28 -6.50649e-28 -2.96207e-28 -4.20112e-29 -1.58936e-30 -9.72367e-33 -5.89522e-36 -2.85341e-40 -1.25829e-44 -5.61949e-49 -2.25727e-53 -7.31816e-111 4.83943e-107 -8.31997e-101 1.41544e-94 -2.74484e-88 5.66583e-82 -1.14871e-75 2.26869e-69 -4.19006e-63 6.7681e-57 -8.54997e-51 7.0475e-45 -2.87257e-39 3.87189e-34 -8.71771e-30 6.03462e-30 -5.32414e-21 -1.29932e-20 2.42363e-07 8.2529e-10 6000.0 6000.0 5999.88 0.811519 0.000101368 4.57531e-05 1.98392e-06 1.45581e-08 5.84647e-12 -1.88708e-11 -1.62641e-11 -1.25539e-11 -9.23749e-12 -6.68884e-12 -4.7638e-12 -3.50459e-12 -2.5335e-12 -2.69424e-12 -3.0823e-12 -4.47546e-12 -7.49995e-12 -1.32191e-11 -1.99464e-11 -2.72244e-11 -3.13839e-11 -3.09134e-11 -2.83633e-11 -2.31742e-11 -1.62729e-11 -9.54284e-12 -4.5344e-12 -1.67849e-12 -4.57568e-13 -8.47275e-14 -9.55718e-15 -5.76685e-16 -1.71881e-17 -4.79021e-19 -5.68357e-20 -9.19491e-21 -7.13592e-22 -1.28501e-23 -2.94751e-26 -5.07746e-30 -1.72676e-34 5.59037e-38 5.17179e-39 6.51393e-42 6000.0 6000.0 6000.0 6000.0 0.0127746 5.67104e-06 1.91707e-09 -5.48832e-11 -5.42707e-11 -5.07818e-11 -4.33541e-11 -3.13687e-11 -1.90011e-11 -1.18459e-11 -8.94498e-12 -7.67882e-12 -7.9566e-12 -9.7822e-12 -9.80519e-12 -8.60557e-12 -6.18063e-12 -3.48717e-12 -1.4792e-12 -4.44759e-13 -8.77626e-14 -1.04819e-14 -8.71951e-16 -2.22083e-16 -1.71413e-16 -1.43679e-16 -1.06399e-16 -6.03182e-17 -2.20422e-17 -4.05215e-18 -2.66793e-19 -4.25686e-21 -1.11786e-23 -3.3575e-27 -1.71376e-31 -6.57028e-36 -1.70799e-40 -4.41791e-45 -2.56952e-34 -4.06735e-33 0.0544602 5999.56 6000.0 6000.0 6000.0 6000.0 6000.0 6000.0 0.00303131 4.16083e-08 1.41052e-12 1.06964e-16 1.33759e-20 7.19443e-25 -7.37719e-25 -5.2923e-25 -9.42614e-26 -2.78731e-27 -1.16299e-29 -6.42082e-33 -4.56987e-37 -3.03773e-41 -2.06415e-45 -1.32178e-49 3.5275e-51 -4.33564e-113 1.16262e-107 -4.2723e-101 7.79623e-95 -1.32681e-88 2.19882e-82 -3.48081e-76 5.20436e-70 -6.91233e-64 7.36167e-58 -5.30933e-52 1.99341e-46 -2.64963e-41 7.19345e-37 -1.55358e-33 -4.7901e-30 -3.82568e-24 -3.71602e-17 0.0263418 5999.87 6000.0 6000.0 6000.0 5999.99 0.0039483 6.06074e-05 1.03964e-07 2.95514e-11 -1.27298e-11 -7.60201e-12 -3.51812e-12 -2.44626e-12 -1.65277e-12 -1.05841e-12 -6.86794e-13 -8.24977e-13 -1.14299e-12 -2.71811e-12 -5.69156e-12 -1.01708e-11 -2.09558e-11 -3.17875e-11 -4.27472e-11 -5.24435e-11 -5.64083e-11 -5.60132e-11 -5.34646e-11 -4.74269e-11 -3.78829e-11 -2.64625e-11 -1.57116e-11 -7.69758e-12 -3.01046e-12 -9.0014e-13 -1.90745e-13 -2.46307e-14 -1.5263e-15 -4.09691e-17 -2.8625e-18 -8.87597e-19 -2.19363e-19 -1.62178e-20 -1.68455e-22 -1.45293e-25 4.41414e-30 3.67152e-30 1.25327e-31 5.6982e-35 6000.0 6000.0 6000.0 5999.89 0.0218318 3.34206e-06 4.71207e-10 -5.9642e-11 -5.6475e-11 -4.7005e-11 -3.05017e-11 -1.45889e-11 -6.52406e-12 -5.66485e-12 -6.42485e-12 -9.69563e-12 -1.81958e-11 -3.13478e-11 -3.52343e-11 -3.30993e-11 -2.71287e-11 -1.84466e-11 -1.00626e-11 -4.2532e-12 -1.32834e-12 -2.88719e-13 -4.25603e-14 -6.14964e-15 -2.44073e-15 -1.78327e-15 -1.35894e-15 -8.96268e-16 -4.43443e-16 -1.37752e-16 -2.06215e-17 -1.03539e-18 -1.15641e-20 -1.90907e-23 -3.14328e-27 -1.37242e-31 -4.18712e-36 -7.15851e-41 -1.50971e-30 -5.9774e-29 5999.47 6000.0 6000.0 6000.0 6000.0 6000.0 6000.0 6000.0 0.00359406 5.64747e-08 9.13859e-12 1.45279e-15 2.39903e-19 -1.63297e-24 -4.21165e-23 -1.90501e-23 -1.80045e-24 -2.4875e-26 -3.80198e-29 -5.19132e-33 -2.6151e-37 -1.44135e-41 -7.93586e-46 2.76752e-48 2.30194e-48 -1.55377e-116 6.51944e-109 -9.28512e-102 2.25493e-95 -3.57481e-89 4.69527e-83 -5.54922e-77 5.80855e-71 -5.00159e-65 3.08761e-59 -1.08821e-53 1.54915e-48 -5.41275e-44 2.17272e-40 2.73193e-36 1.91931e-24 3.075e-23 -1.99176e-15 5999.8 6000.0 6000.0 6000.0 6000.0 6000.0 0.104267 6.05511e-05 1.56528e-08 1.05624e-12 1.00841e-11 1.50335e-11 8.07794e-12 1.2153e-12 -1.07003e-13 -2.1214e-13 -3.13206e-13 -7.7301e-13 -2.19883e-12 -1.13961e-11 -7.14284e-12 -7.87436e-12 -2.91298e-11 2.12552e-12 1.36356e-10 2.28108e-10 2.47183e-10 2.71351e-10 2.52904e-10 1.9105e-10 1.06698e-10 4.32559e-11 1.18567e-11 1.36392e-12 -5.50372e-13 -3.36181e-13 -1.27316e-13 -2.2322e-14 -1.58304e-15 -1.009e-17 2.06173e-17 9.41105e-18 6.59468e-19 -2.10655e-20 -1.07805e-20 -1.01288e-21 -8.29263e-24 -3.01619e-27 -9.63563e-33 2.20114e-33 6000.0 6000.0 6000.0 0.03038 3.29802e-05 2.07663e-08 -6.68e-11 -6.59253e-11 -5.77711e-11 -3.87463e-11 -1.73776e-11 -5.623e-12 -4.18053e-12 -4.92366e-12 -1.03747e-11 -2.53903e-11 -4.90676e-11 -5.87744e-11 -5.95892e-11 -5.76432e-11 -5.08972e-11 -3.90233e-11 -2.49171e-11 -1.26634e-11 -4.81534e-12 -1.25545e-12 -2.10662e-13 -3.67097e-14 -2.03074e-14 -1.75496e-14 -1.52789e-14 -1.20005e-14 -7.74359e-15 -3.64269e-15 -1.02798e-15 -1.1064e-16 -2.77709e-18 -1.08369e-20 -4.452e-24 -2.11463e-28 -7.48682e-33 -8.11539e-35 1.13304e-29 1.03008e-19 5999.92 6000.0 6000.0 6000.0 6000.0 6000.0 6000.0 5999.99 0.00423248 3.40132e-07 3.65049e-11 4.61424e-15 7.25188e-19 -5.09908e-22 -2.75147e-22 -6.49151e-23 -4.1915e-24 -4.68282e-26 -6.35344e-29 -8.3492e-33 -4.42718e-37 -2.35424e-41 1.14744e-43 7.21728e-44 4.06547e-45 1.44844e-120 5.28682e-111 -5.50469e-103 2.38687e-96 -3.88778e-90 4.09709e-84 -3.4815e-78 2.37449e-72 -1.20465e-66 3.83086e-61 -5.74992e-56 2.68779e-51 -1.81542e-47 -9.89088e-43 2.61801e-36 1.22401e-24 2.23826e-24 5999.73 6000.0 6000.0 6000.0 6000.0 6000.0 6000.0 6000.0 5999.19 0.20872 3.10073e-05 5.59965e-09 8.32279e-11 1.01972e-10 7.08667e-11 1.91472e-11 1.96258e-12 3.12385e-14 -1.81099e-13 -5.92847e-13 -1.89921e-12 -4.62075e-12 -1.85373e-11 2.57973e-09 2.51993e-09 3.10825e-09 7.66995e-07 1.14887e-06 1.11452e-06 1.13869e-06 1.10638e-06 1.01825e-06 8.00861e-07 5.11185e-07 2.77972e-07 1.21796e-07 4.17815e-08 1.09428e-08 2.00739e-09 2.14334e-10 1.01398e-11 1.55899e-13 8.38955e-16 4.8113e-17 7.57278e-18 4.56317e-19 -1.34646e-20 -6.76575e-21 7.46319e-22 4.55078e-22 2.77196e-23 8.20674e-26 5.93137e-30 5.45885e-35 6000.0 6000.0 6000.0 6000.0 0.0431873 2.41589e-05 8.04418e-09 -7.44133e-11 -6.94895e-11 -5.243e-11 -2.58926e-11 -8.09963e-12 -3.66194e-12 -4.19086e-12 -1.03767e-11 -2.92004e-11 -5.78145e-11 -7.31958e-11 1.82608e-10 3.56186e-10 3.11299e-10 2.15142e-10 1.24596e-10 6.84516e-11 4.01095e-11 2.55547e-11 1.67178e-11 1.07226e-11 6.62316e-12 3.85196e-12 1.98727e-12 8.20149e-13 2.53387e-13 5.86663e-14 5.08843e-15 -3.04189e-16 -1.8807e-16 -3.97463e-17 -1.87954e-18 -1.28066e-20 -8.22089e-24 -3.68306e-28 -3.16326e-33 -1.08265e-25 -2.08706e-15 5999.86 6000.0 6000.0 6000.0 6000.0 6000.0 6000.0 6000.0 5999.99 0.00473326 3.27095e-07 3.36164e-11 4.4877e-15 -1.91733e-17 -2.68458e-18 -7.27861e-20 -1.09212e-21 -2.70248e-23 -1.19537e-24 -2.02881e-26 -5.89836e-29 -1.82934e-32 -1.02832e-36 3.91121e-39 3.02505e-39 4.62553e-40 4.16201e-42 -2.74019e-116 5.22529e-112 -5.11931e-104 1.47459e-97 -2.01929e-91 1.75236e-85 -1.20867e-79 7.3161e-74 -4.24016e-68 2.25904e-62 -7.04337e-57 4.12086e-52 -4.15124e-48 7.10967e-42 -4.13565e-35 7.44532e-25 1.37341e-30 5999.92 6000.0 6000.0 6000.0 6000.0 6000.0 6000.0 5999.29 0.313139 8.0277e-05 1.71878e-08 2.35222e-10 4.37234e-10 3.79227e-10 1.43861e-10 2.11587e-11 1.25912e-12 -1.65018e-13 -4.96388e-13 -9.63931e-13 -2.3796e-12 -5.12201e-12 -1.94286e-11 1.54802e-07 1.46529e-07 7.76283e-06 0.00816057 0.000529157 2.59202e-05 9.83668e-07 6.38448e-09 2.54211e-12 4.1395e-07 3.82052e-07 2.86713e-07 1.74916e-07 9.22e-08 3.72425e-08 1.02397e-08 1.57602e-09 1.00439e-10 1.98497e-12 5.23181e-15 -2.91198e-15 -2.04598e-15 -6.32032e-16 -5.5887e-17 -9.18845e-19 1.08467e-21 1.56355e-21 2.49578e-22 3.50269e-24 2.73148e-27 5.99885e-32 6000.0 6000.0 6000.0 5999.88 0.0594049 9.28927e-06 1.63405e-09 -7.69711e-11 -6.53372e-11 -3.60508e-11 -1.16342e-11 -4.37798e-12 -4.85465e-12 -1.02714e-11 -2.76689e-11 -5.80572e-11 -7.80596e-11 1.14382e-09 3.13493e-06 3.68277e-06 2.94143e-06 1.68477e-06 7.84852e-07 3.41356e-07 1.52679e-07 7.27262e-08 3.59568e-08 1.72022e-08 7.18809e-09 2.27779e-09 4.51173e-10 4.60581e-11 1.9744e-12 4.7471e-14 1.61774e-15 -1.21521e-16 -1.22043e-16 -5.73227e-17 -7.70438e-18 -1.85419e-19 -5.4688e-22 -1.43522e-25 -3.4538e-27 1.4738e-23 -2.35779e-11 0.507291 5999.81 6000.0 6000.0 6000.0 6000.0 6000.0 5999.99 0.00542975 2.94936e-07 2.88014e-11 -4.63576e-15 -1.04761e-15 -2.2111e-16 -3.12485e-17 -1.96335e-18 -2.54386e-20 -3.39725e-23 -3.43236e-27 -1.49968e-31 4.70344e-33 1.63277e-33 1.0802e-34 1.52127e-35 2.33038e-36 5.12629e-38 6.99347e-41 1.00232e-110 -4.40099e-109 1.35639e-103 -6.83805e-98 3.95077e-92 -2.69859e-86 2.20222e-80 -2.07103e-74 2.18934e-68 -2.58483e-62 3.63458e-56 -7.66857e-50 2.28741e-43 -9.21815e-37 5.55842e-30 -5.59855e-23 1.29884e-15 5999.89 6000.0 6000.0 6000.0 6000.0 2.28996e-23 5999.22 5999.53 5999.4 0.429228 0.000128953 4.10319e-08 7.23854e-10 1.50937e-09 1.48144e-09 7.46205e-10 1.60314e-10 1.01486e-11 2.36505e-13 -6.70302e-13 -7.74357e-13 1.46799e-13 3.05129e-09 1.19715e-08 2.62949e-08 3.23537e-06 1.79023e-05 0.0402732 5999.59 5999.97 5999.95 0.409336 5999.46 5999.88 5999.84 0.492806 0.000201986 2.67286e-07 6.09437e-08 2.70796e-08 9.09345e-09 1.70115e-09 1.37922e-10 3.23124e-12 -8.27437e-14 -7.76168e-14 -4.14815e-14 -9.72681e-15 -7.19071e-16 -1.1735e-17 -2.64252e-20 1.55522e-21 6.33425e-22 4.50861e-23 3.12588e-25 1.22949e-28 2.80253e-33 6000.0 6000.0 6000.0 5999.89 0.0785852 2.29063e-05 5.16455e-09 -8.53424e-11 -7.33713e-11 -4.1645e-11 -1.40506e-11 -4.1762e-12 -4.7029e-12 -1.01709e-11 -2.4383e-11 -5.04241e-11 -7.51169e-11 3.16472e-09 7.79544e-06 0.0245165 0.017635 0.00469109 0.00105352 0.000398615 0.000209097 0.000113217 5.70648e-05 2.44043e-05 7.78154e-06 1.53929e-06 1.49306e-07 5.52437e-09 6.46781e-11 3.86213e-13 4.69698e-15 1.41052e-16 -4.1808e-17 -5.60367e-17 -4.02925e-17 -1.17649e-17 -8.21828e-19 -9.05804e-21 -1.14395e-23 -4.2872e-25 1.03464e-22 -2.35734e-11 1.86121e-08 5999.76 6000.0 6000.0 6000.0 6000.0 6000.0 6000.0 6000.0 0.00668722 5.33511e-08 7.12762e-11 -6.41398e-13 -1.70463e-13 -6.67696e-14 -1.37402e-14 -1.00327e-15 -2.05015e-17 -7.94968e-20 -4.03228e-23 -2.82657e-27 -1.81005e-31 6.09706e-32 9.63782e-32 6.26467e-32 9.14264e-33 1.63004e-34 2.76128e-37 3.77747e-41 -1.81942e-105 2.55961e-104 -1.85196e-99 2.20223e-94 -4.31922e-89 1.32984e-83 -6.11424e-78 4.0117e-72 -3.67866e-66 4.65429e-60 -8.14795e-54 2.04646e-47 -7.94362e-41 5.32279e-34 -7.46783e-27 3.48772e-19 -1.40579e-10 0.211215 5999.87 6000.0 6000.0 6000.0 6000.0 3.79835e-15 7.193e-17 4.50644e-17 3.91e-19 7.25697e-12 2.45443e-11 3.3646e-10 1.61487e-09 4.07911e-09 4.48925e-09 2.78256e-09 8.43818e-10 8.76829e-11 1.40241e-12 -5.87306e-13 -1.14416e-12 6.61988e-12 1.02281e-08 1.70127e-05 4.0449e-05 4.98116e-05 2.3055e-05 0.081305 5999.65 6000.0 6000.0 6000.0 5999.94 6000.0 6000.0 6000.0 5999.79 0.447636 0.00014642 8.90429e-08 7.59531e-09 3.33952e-09 9.2664e-10 1.01221e-10 1.10833e-12 -1.36739e-12 -9.71361e-13 -3.77273e-13 -7.16724e-14 -5.44711e-15 -1.20901e-16 -5.56279e-19 1.0661e-21 7.9275e-22 1.55824e-22 5.25212e-24 2.25555e-26 8.03958e-30 1.92887e-34 1.88505e-09 5999.82 5999.94 5999.91 0.109051 3.56806e-05 1.12338e-08 -8.47991e-11 -7.04886e-11 -4.04037e-11 -1.50795e-11 -3.246e-12 -3.27059e-12 -9.03138e-12 -2.267e-11 -4.14195e-11 -6.39002e-11 4.27357e-09 1.04949e-05 0.0296551 5999.93 6000.0 6000.0 0.074106 0.000613214 0.0002078 0.000101293 4.53407e-05 1.5431e-05 3.31891e-06 3.56778e-07 1.4808e-08 2.24562e-10 2.10086e-12 6.31187e-15 5.00454e-17 6.45331e-18 -3.40714e-18 -1.28098e-17 -1.61021e-17 -8.90183e-18 -1.65121e-18 -6.33078e-20 -4.52645e-22 -2.26846e-23 2.45435e-22 -1.5098e-11 -1.28472e-10 0.448384 5999.72 6000.0 6000.0 6000.0 6000.0 6000.0 6000.0 6000.0 6000.0 0.00804861 9.96692e-07 4.62234e-10 -1.01412e-11 -8.87016e-12 -3.73506e-12 -5.12279e-13 -1.65527e-14 -9.54219e-17 -7.84902e-20 -8.41454e-24 -3.48095e-28 2.45011e-28 3.22011e-28 2.11182e-28 3.60436e-29 7.86749e-31 1.28021e-33 1.22259e-37 4.00228e-42 -2.36267e-105 2.01385e-103 -2.44708e-98 3.67335e-93 -8.07534e-88 2.59557e-82 -1.18662e-76 7.49068e-71 -6.45245e-65 7.49468e-59 -1.18503e-52 2.63896e-46 -8.85753e-40 4.94953e-33 -5.47709e-26 2.06152e-18 -1.29032e-10 5.08775e-05 0.185288 5999.86 6000.0 6000.0 6000.0 6000.0 1.81683e-10 2.6747e-11 9.48195e-12 1.41372e-11 4.67155e-11 2.94498e-10 1.66881e-09 5.81978e-09 1.07947e-08 1.09614e-08 7.77619e-09 3.20017e-09 5.42147e-10 2.76887e-11 -1.60113e-12 -1.5224e-12 -1.65656e-12 2.56695e-08 4.10609e-05 0.106965 0.0885045 0.0624905 1.03888e-06 5999.71 6000.0 6000.0 6000.0 6000.0 6000.0 6000.0 6000.0 6000.0 6000.0 5999.72 0.390367 0.0001363 6.53137e-08 2.66097e-10 1.06899e-10 5.78652e-12 -1.51571e-11 -1.20175e-11 -6.31031e-12 -2.19504e-12 -4.4847e-13 -4.16798e-14 -1.2646e-15 -8.90463e-18 -9.40352e-21 5.54634e-22 2.66238e-22 3.38789e-23 7.36983e-25 1.7294e-27 2.54859e-31 4.99493e-36 6000.0 0.333124 1.57842e-06 2.50967e-12 9.24819e-08 1.59437e-08 8.19779e-10 -6.36217e-11 -5.57104e-11 -3.28598e-11 -1.30288e-11 -3.12314e-12 -1.05468e-12 -5.30912e-12 -2.19166e-11 -3.73182e-11 -5.10487e-11 4.95981e-09 1.0767e-05 0.0295589 5999.94 6000.0 6000.0 6000.0 6000.0 0.0614662 7.14039e-05 1.75787e-05 5.31768e-06 1.07485e-06 1.03683e-07 3.02527e-09 1.24932e-11 5.99846e-15 -3.8047e-17 -2.88551e-17 -2.02141e-17 -6.74181e-18 -2.58857e-18 -1.88838e-18 -2.80209e-18 -2.90324e-18 -1.24307e-18 -1.30996e-19 4.94588e-23 2.79174e-21 4.44502e-21 -6.70779e-12 -1.05431e-10 0.000168639 0.399721 5999.67 6000.0 6000.0 0.482422 5999.82 6000.0 6000.0 6000.0 6000.0 5999.99 0.00917044 2.03095e-06 5.82432e-10 -1.21871e-10 -8.61603e-11 -3.12271e-11 -4.24535e-12 -1.51973e-13 -9.80728e-16 -8.03202e-19 -7.56729e-23 1.82357e-25 2.47421e-25 1.90441e-25 4.34672e-26 1.53729e-27 5.51779e-30 1.56987e-33 6.77161e-38 2.64472e-42 -1.27106e-105 4.1312e-103 -1.33977e-97 2.79405e-92 -7.12007e-87 2.43843e-81 -1.12463e-75 6.90011e-70 -5.61681e-64 6.01845e-58 -8.61286e-52 1.69954e-45 -4.93124e-39 2.32039e-32 -2.22584e-25 5.03454e-18 -9.50787e-11 1.42913e-08 4.38602e-05 0.166975 5999.85 6000.0 6000.0 6000.0 6000.0 4.69741e-08 1.05551e-08 3.03183e-09 3.12282e-09 3.73898e-09 5.52232e-09 1.0022e-08 1.73691e-08 2.48099e-08 2.35207e-08 1.73085e-08 8.86322e-09 2.39022e-09 2.39651e-10 5.39545e-12 -3.24411e-12 -2.66138e-12 -2.08267e-12 6.03496e-05 0.122333 5999.83 6000.0 6000.0 0.227479 5999.84 6000.0 6000.0 6000.0 6000.0 6000.0 6000.0 6000.0 6000.0 6000.0 6000.0 0.322359 0.000128098 1.32613e-07 4.38145e-11 -8.60168e-11 -7.83555e-11 -6.46363e-11 -4.6612e-11 -2.61168e-11 -1.02468e-11 -2.4403e-12 -2.79619e-13 -1.1331e-14 -1.17251e-16 -2.29903e-19 3.25355e-22 2.36459e-22 7.32355e-23 5.72791e-24 7.44357e-26 1.01747e-28 8.56163e-33 1.68235e-37 6000.0 6000.0 6000.0 0.280926 0.000127053 3.48277e-07 5.02446e-10 -5.46294e-11 -4.14805e-11 -2.22634e-11 -8.50601e-12 -2.40866e-12 -3.21177e-13 -7.63162e-13 -1.71224e-11 -3.78657e-11 -4.43158e-11 5.45822e-09 1.10049e-05 0.028145 5999.95 6000.0 6000.0 6000.0 6000.0 6000.0 5999.99 0.0485877 7.7161e-06 1.69025e-08 1.20054e-09 4.17275e-11 1.72559e-13 5.37039e-17 -1.54509e-16 -1.68611e-16 -1.02904e-17 4.95689e-12 -5.2546e-12 -5.10873e-12 -4.19301e-12 -1.9186e-12 -5.02113e-13 -7.89904e-14 -7.82145e-15 -5.19499e-16 -2.63183e-17 -6.84045e-19 -2.32931e-12 -7.44562e-11 7.76591e-08 0.00013306 0.351356 0.301455 0.276536 5999.41 6000.0 6000.0 5999.99 6000.0 6000.0 6000.0 5999.99 0.0106564 2.47993e-06 2.53565e-10 -3.34755e-10 -2.90132e-10 -1.8527e-10 -7.11481e-11 -1.24057e-11 -6.98573e-13 -8.56254e-15 -1.6111e-17 -4.69131e-21 3.74274e-23 3.35544e-23 1.25763e-23 8.78396e-25 7.38369e-27 5.74603e-30 3.53184e-34 1.65899e-38 7.26948e-43 -1.64603e-106 3.92065e-103 -3.1038e-97 1.20124e-91 -3.84658e-86 1.44876e-80 -6.87749e-75 4.15631e-69 -3.22609e-63 3.20969e-57 -4.18139e-51 7.36059e-45 -1.88852e-38 8.02493e-32 -6.25488e-25 4.95659e-18 -4.17827e-11 -9.43304e-11 1.17196e-08 4.03592e-05 0.157205 5999.84 6000.0 6000.0 6000.0 6000.0 6000.0 3.84643e-05 4.90418e-06 2.83416e-07 4.85002e-08 4.92581e-08 5.01085e-08 5.05196e-08 5.16114e-08 5.36894e-08 5.21272e-08 4.499e-08 3.23512e-08 1.89697e-08 7.26992e-09 1.31376e-09 8.17933e-11 -1.95122e-12 -5.2122e-12 -3.55703e-12 -2.10723e-12 0.137348 5999.85 6000.0 6000.0 6000.0 6000.0 6000.0 6000.0 6000.0 6000.0 0.235478 4.25729e-05 7.59948e-08 9.64044e-11 -7.23996e-11 -8.6181e-11 -8.40311e-11 -7.53765e-11 -5.72144e-11 -3.14664e-11 -1.03511e-11 -1.63054e-12 -9.35288e-14 -1.45591e-15 -4.69601e-18 -2.21404e-21 1.29843e-22 7.3596e-23 1.44383e-23 6.55389e-25 4.6286e-27 3.40318e-30 1.82443e-34 5.00304e-39 -1.684e-40 6000.0 6000.0 6000.0 6000.0 6000.0 0.377607 0.000245461 1.88061e-07 6.25294e-11 -1.00834e-11 -7.42197e-12 -3.57897e-12 -1.13638e-12 -2.51639e-13 -2.5294e-14 -2.87179e-12 -4.22381e-11 -4.55291e-11 5.92625e-09 1.12285e-05 0.0271057 5999.96 6000.0 6000.0 6000.0 6000.0 6000.0 3.2644e-19 2.9465e-21 -2.10141e-15 5999.94 5999.97 5999.97 0.0360816 1.34089e-05 5.17505e-09 -6.57544e-12 -3.91592e-12 -1.26359e-12 -2.32768e-13 -2.64674e-14 -2.11483e-15 -8.18937e-17 -7.09887e-13 -3.84256e-11 -6.767e-11 5.31622e-08 0.000167759 0.000145231 1.39605e-08 5999.65 6000.0 6000.0 6000.0 6000.0 7.72568e-16 4.60664e-18 -4.95845e-16 5999.98 5999.99 5999.99 0.0124018 3.70249e-06 8.23637e-10 -3.81531e-10 -3.56678e-10 -2.92707e-10 -1.88861e-10 -7.99263e-11 -1.70217e-11 -1.30011e-12 -2.59812e-14 -1.10123e-16 -6.74316e-20 1.3231e-21 7.39478e-22 9.73328e-23 2.19279e-24 6.30566e-27 1.71406e-30 8.90871e-35 4.53249e-39 2.32797e-43 -2.64097e-108 2.21715e-103 -3.29059e-97 2.50789e-91 -1.28444e-85 5.87328e-80 -2.99476e-74 1.82881e-68 -1.37857e-62 1.29592e-56 -1.56748e-50 2.53461e-44 -5.91055e-38 1.94892e-31 -7.16674e-25 3.95099e-18 -1.01606e-11 -6.21801e-11 -8.12099e-11 1.02789e-08 3.89856e-05 0.149146 5999.82 6000.0 6000.0 0.253093 5999.82 6000.0 6000.0 6000.0 6000.0 6000.0 6000.0 0.486725 0.000263559 8.17983e-07 1.77829e-07 1.74004e-07 1.6471e-07 1.49963e-07 1.31997e-07 1.13131e-07 9.37089e-08 7.28381e-08 5.23738e-08 3.31961e-08 1.54246e-08 4.23088e-09 5.00282e-10 2.12631e-11 -5.52804e-12 -7.4358e-12 -3.80149e-12 -4.3659e-13 5999.87 6000.0 6000.0 6000.0 6000.0 0.297968 6.2801e-06 8.54125e-07 9.07961e-09 3.13614e-11 -1.71209e-11 -4.18841e-11 -5.6821e-11 -6.05801e-11 -5.41425e-11 -3.91925e-11 -1.95234e-11 -5.08061e-12 -5.10097e-13 -1.45668e-14 -9.00389e-17 -9.63151e-20 2.13737e-22 1.9249e-22 1.12318e-22 3.13149e-23 2.73793e-24 4.65662e-26 9.93839e-29 1.79773e-32 -5.95576e-36 -4.2831e-36 3.63664e-34 -3.37467e-28 2.64094e-22 -5.32523e-15 5999.56 6000.0 6000.0 6000.0 6000.0 6000.0 5999.64 0.473685 0.00012501 3.29036e-08 7.58058e-12 2.84701e-12 1.00146e-12 2.36185e-13 2.45885e-14 -2.24642e-15 -3.34428e-16 -1.01653e-11 -7.57968e-11 6.82558e-09 1.16218e-05 0.026406 5999.97 6000.0 6000.0 6000.0 6000.0 5999.98 6000.0 6000.0 6000.0 5999.97 0.0320935 1.13691e-05 3.7782e-09 -1.24556e-11 -7.18636e-12 -2.24404e-12 -4.10848e-13 -5.06277e-14 -2.94068e-15 -1.67275e-13 -1.44205e-11 -5.48136e-11 -1.12075e-10 1.05108e-07 2.80167e-07 7.27036e-08 5999.58 6000.0 6000.0 6000.0 6000.0 6000.0 6000.0 5999.91 0.375648 5.23496e-05 9.89095e-08 1.07714e-08 3.01205e-10 4.45181e-13 -1.36089e-16 -1.96166e-17 -1.72767e-18 3.66535e-15 -7.94071e-11 -1.65663e-10 -1.76192e-10 -1.44833e-10 -1.0827e-10 -7.51252e-11 -4.49697e-11 -2.0282e-11 -5.64054e-12 -7.40384e-13 -3.19324e-14 -2.94646e-16