/*--------------------------------*- C++ -*----------------------------------*\
| =========                 |                                                 |
| \\      /  F ield         | OpenFOAM: The Open Source CFD Toolbox           |
|  \\    /   O peration     | Version:  2512                                  |
|   \\  /    A nd           | Website:  www.openfoam.com                      |
|    \\/     M anipulation  |                                                 |
\*---------------------------------------------------------------------------*/
FoamFile
{
    version     2.0;
    format      ascii;
    arch        "LSB;label=32;scalar=64";
    class       volVectorField;
    location    "0";
    object      U;
}
// * * * * * * * * * * * * * * * * * * * * * * * * * * * * * * * * * * * * * //

dimensions      [0 1 -1 0 0 0 0];

internalField nonuniform List<vector> 13898((0.000218299 3.47814e-05 0.0) (0.000183608 2.99182e-05 0.0) (0.000133559 1.56159e-05 0.0) (9.62114e-05 8.42004e-06 0.0) (7.19413e-05 5.09499e-06 0.0) (5.51233e-05 3.30897e-06 0.0) (4.25035e-05 2.29244e-06 0.0) (3.25222e-05 1.70056e-06 0.0) (2.4341e-05 1.3302e-06 0.0) (1.7506e-05 1.06734e-06 0.0) (1.18024e-05 8.49688e-07 0.0) (7.16192e-06 6.41945e-07 0.0) (3.60172e-06 4.24112e-07 0.0) (1.18095e-06 1.86464e-07 0.0) (-6.19701e-08 -7.17829e-08 0.0) (-2.95245e-07 -2.86595e-07 0.0) (-7.22834e-14 -1.61518e-13 0.0) (-4.09922e-14 -4.22186e-14 0.0) (-2.22922e-14 -1.17347e-14 0.0) (-1.96613e-15 -2.7669e-15 0.0) (1.47443e-15 8.64609e-16 0.0) (1.60781e-08 -1.18033e-10 0.0) (-1.42279e-07 1.26919e-07 0.0) (-8.23035e-07 3.08894e-07 0.0) (-2.15851e-06 5.26798e-07 0.0) (-3.87502e-06 6.24429e-07 0.0) (-5.00933e-06 4.29177e-07 0.0) (-4.12536e-06 -1.17479e-07 0.0) (-1.14417e-07 -8.11812e-07 0.0) (7.27414e-06 -1.47181e-06 0.0) (1.76141e-05 -1.99057e-06 0.0) (3.01278e-05 -2.32919e-06 0.0) (4.39532e-05 -2.49606e-06 0.0) (5.83161e-05 -2.52538e-06 0.0) (7.26164e-05 -2.46065e-06 0.0) (8.64541e-05 -2.34436e-06 0.0) (9.96153e-05 -2.21193e-06 0.0) (0.000112032 -2.08746e-06 0.0) (0.000123724 -1.98006e-06 0.0) (0.000134718 -1.88118e-06 0.0) (0.000144972 -1.76602e-06 0.0) (0.000154319 -1.60244e-06 0.0) (0.000162466 -1.36589e-06 0.0) (0.000169066 -1.05583e-06 0.0) (0.000173842 -7.02068e-07 0.0) (0.000176667 -3.4185e-07 0.0) (0.000177527 1.34322e-08 0.0) (0.000176403 3.7975e-07 0.0) (0.000173215 7.71799e-07 0.0) (0.000167895 1.17347e-06 0.0) (0.000160524 1.53726e-06 0.0) (0.000151401 1.81702e-06 0.0) (0.000140981 1.99318e-06 0.0) (0.00012976 2.07107e-06 0.0) (0.00011818 2.07098e-06 0.0) (0.00010658 2.01878e-06 0.0) (9.51833e-05 1.93901e-06 0.0) (8.41084e-05 1.85097e-06 0.0) (7.33992e-05 1.76725e-06 0.0) (6.30542e-05 1.69358e-06 0.0) (5.3058e-05 1.6294e-06 0.0) (4.34097e-05 1.56832e-06 0.0) (3.41502e-05 1.49835e-06 0.0) (2.53855e-05 1.4018e-06 0.0) (1.73091e-05 1.25564e-06 0.0) (1.02154e-05 1.03361e-06 0.0) (4.49619e-06 7.12227e-07 0.0) (6.00824e-07 2.81276e-07 0.0) (-1.12742e-06 -2.24084e-07 0.0) (-9.58791e-07 -5.68744e-07 0.0) (-2.23911e-07 -1.84695e-07 0.0) (8.31889e-09 -2.38199e-09 0.0) (2.015e-08 -5.3203e-10 0.0) (-7.34122e-08 8.23547e-08 0.0) (-6.80208e-07 3.56943e-07 0.0) (-2.22268e-06 7.02832e-07 0.0) (-4.03393e-06 7.12172e-07 0.0) (-3.92316e-06 1.75908e-08 0.0) (-4.49973e-08 -8.51386e-07 0.0) (7.73944e-06 -1.61014e-06 0.0) (1.86624e-05 -2.15201e-06 0.0) (3.1676e-05 -2.46678e-06 0.0) (4.57684e-05 -2.58816e-06 0.0) (6.00855e-05 -2.56e-06 0.0) (7.39441e-05 -2.41844e-06 0.0) (8.6796e-05 -2.18672e-06 0.0) (9.81833e-05 -1.87747e-06 0.0) (0.00010771 -1.49891e-06 0.0) (0.000115047 -1.06313e-06 0.0) (0.000119964 -5.93866e-07 0.0) (0.000122396 -1.29752e-07 0.0) (0.000122488 2.83209e-07 0.0) (0.000120595 6.05112e-07 0.0) (0.000117221 8.13905e-07 0.0) (0.00011293 9.10086e-07 0.0) (0.00010824 9.11984e-07 0.0) (0.000103557 8.48009e-07 0.0) (9.91438e-05 7.49701e-07 0.0) (9.51086e-05 6.46951e-07 0.0) (9.14211e-05 5.65307e-07 0.0) (8.79356e-05 5.24608e-07 0.0) (8.44215e-05 5.38074e-07 0.0) (8.06e-05 6.11408e-07 0.0) (7.61843e-05 7.42058e-07 0.0) (7.09233e-05 9.19131e-07 0.0) (6.46416e-05 1.12428e-06 0.0) (5.72739e-05 1.33337e-06 0.0) (4.8889e-05 1.51818e-06 0.0) (3.97061e-05 1.6476e-06 0.0) (3.01016e-05 1.68905e-06 0.0) (2.0604e-05 1.61157e-06 0.0) (1.18648e-05 1.39255e-06 0.0) (4.58707e-06 1.02934e-06 0.0) (-6.05097e-07 5.54632e-07 0.0) (-3.36596e-06 5.11785e-08 0.0) (-3.86676e-06 -3.43522e-07 0.0) (-2.92571e-06 -4.76712e-07 0.0) (-1.60348e-06 -3.94176e-07 0.0) (-6.00389e-07 -2.267e-07 0.0) (-9.95431e-08 -9.05973e-08 0.0) (1.30891e-08 1.07689e-09 0.0) (-1.48679e-15 9.00757e-16 0.0) (6.4655e-15 -6.35944e-15 0.0) (3.48824e-14 -1.2799e-14 0.0) (5.61235e-14 -2.74955e-14 0.0) (7.56956e-14 -1.14676e-13 0.0) (-8.19518e-08 9.5388e-08 0.0) (-4.20549e-07 1.0516e-07 0.0) (-7.11285e-07 8.14041e-08 0.0) (-8.52035e-07 4.38444e-08 0.0) (-8.12049e-07 4.71504e-09 0.0) (-5.99191e-07 -2.91248e-08 0.0) (-2.42162e-07 -5.50039e-08 0.0) (2.22739e-07 -7.28522e-08 0.0) (7.60739e-07 -8.40068e-08 0.0) (1.34389e-06 -9.05406e-08 0.0) (1.95403e-06 -9.50151e-08 0.0) (2.58448e-06 -1.00646e-07 0.0) (3.23993e-06 -1.11403e-07 0.0) (3.93777e-06 -1.30808e-07 0.0) (4.74213e-06 -1.65585e-07 0.0) (5.84422e-06 -2.66603e-07 0.0) (7.14928e-06 -5.17593e-07 0.0) (0.000299568 7.94387e-05 0.0) (0.000289931 9.29259e-05 0.0) (0.000250139 7.0418e-05 0.0) (0.000206676 5.04119e-05 0.0) (0.000169082 3.67118e-05 0.0) (0.00013751 2.77248e-05 0.0) (0.000110735 2.18218e-05 0.0) (8.77776e-05 1.78032e-05 0.0) (6.7937e-05 1.48624e-05 0.0) (5.07759e-05 1.24846e-05 0.0) (3.60876e-05 1.03463e-05 0.0) (2.38382e-05 8.25073e-06 0.0) (1.40975e-05 6.09732e-06 0.0) (6.95437e-06 3.88022e-06 0.0) (2.37726e-06 1.72164e-06 0.0) (-9.18979e-10 1.60866e-08 0.0) (-1.13731e-13 -2.1181e-13 0.0) (-7.83204e-14 -8.56862e-14 0.0) (-3.84383e-14 -4.742e-14 0.0) (-5.84751e-15 -2.2071e-14 0.0) (3.46399e-16 -1.78925e-15 0.0) (3.38108e-08 1.03524e-07 0.0) (-7.66513e-08 7.75693e-07 0.0) (-9.77918e-07 1.77481e-06 0.0) (-2.82196e-06 2.73782e-06 0.0) (-5.08286e-06 2.5419e-06 0.0) (-5.61901e-06 2.93528e-09 0.0) (-1.11057e-06 -5.16168e-06 0.0) (1.09519e-05 -1.15652e-05 0.0) (3.09864e-05 -1.77476e-05 0.0) (5.7915e-05 -2.2748e-05 0.0) (8.99104e-05 -2.61552e-05 0.0) (0.000124972 -2.79727e-05 0.0) (0.000161294 -2.84506e-05 0.0) (0.000197454 -2.79475e-05 0.0) (0.000232474 -2.68349e-05 0.0) (0.000265797 -2.54344e-05 0.0) (0.000297205 -2.39725e-05 0.0) (0.000326689 -2.25453e-05 0.0) (0.000354278 -2.10984e-05 0.0) (0.000379856 -1.94449e-05 0.0) (0.000403032 -1.7341e-05 0.0) (0.000423125 -1.46079e-05 0.0) (0.000439329 -1.12532e-05 0.0) (0.000450997 -7.49981e-06 0.0) (0.000457854 -3.62267e-06 0.0) (0.000459895 2.72635e-07 0.0) (0.000457095 4.26226e-06 0.0) (0.000449263 8.40728e-06 0.0) (0.000436222 1.25507e-05 0.0) (0.000418151 1.63176e-05 0.0) (0.000395751 1.9335e-05 0.0) (0.00037009 2.1419e-05 0.0) (0.000342323 2.25872e-05 0.0) (0.000313485 2.29921e-05 0.0) (0.000284378 2.28455e-05 0.0) (0.000255551 2.23586e-05 0.0) (0.000227322 2.17042e-05 0.0) (0.00019984 2.09998e-05 0.0) (0.000173149 2.03026e-05 0.0) (0.000147263 1.96123e-05 0.0) (0.000122227 1.88752e-05 0.0) (9.81705e-05 1.79895e-05 0.0) (7.53639e-05 1.68102e-05 0.0) (5.42541e-05 1.51599e-05 0.0) (3.54861e-05 1.28553e-05 0.0) (1.98846e-05 9.76532e-06 0.0) (8.3732e-06 5.92914e-06 0.0) (1.74185e-06 1.81074e-06 0.0) (-1.82935e-07 -1.16898e-06 0.0) (9.57724e-08 -3.34262e-07 0.0) (3.77046e-09 1.07663e-09 0.0) (3.6446e-08 3.91191e-08 0.0) (6.85176e-08 5.05092e-07 0.0) (-3.43013e-07 1.79099e-06 0.0) (-2.08707e-06 3.04114e-06 0.0) (-3.96847e-06 1.64595e-06 0.0) (-9.70872e-07 -4.35087e-06 0.0) (1.10799e-05 -1.18861e-05 0.0) (3.20762e-05 -1.87024e-05 0.0) (6.01398e-05 -2.37603e-05 0.0) (9.28944e-05 -2.68325e-05 0.0) (0.000128058 -2.80981e-05 0.0) (0.000163672 -2.78669e-05 0.0) (0.000198135 -2.64288e-05 0.0) (0.000230132 -2.39997e-05 0.0) (0.000258549 -2.07284e-05 0.0) (0.000282427 -1.67413e-05 0.0) (0.000300969 -1.22027e-05 0.0) (0.000313626 -7.371e-06 0.0) (0.000320237 -2.61301e-06 0.0) (0.000321141 1.65691e-06 0.0) (0.000317174 5.08354e-06 0.0) (0.000309527 7.46474e-06 0.0) (0.000299517 8.79042e-06 0.0) (0.000288364 9.21169e-06 0.0) (0.000277025 8.97934e-06 0.0) (0.000266121 8.38344e-06 0.0) (0.00025592 7.70776e-06 0.0) (0.000246362 7.20073e-06 0.0) (0.000237118 7.05782e-06 0.0) (0.00022766 7.40933e-06 0.0) (0.000217342 8.31028e-06 0.0) (0.000205502 9.73353e-06 0.0) (0.000191562 1.15698e-05 0.0) (0.000175127 1.36364e-05 0.0) (0.000156063 1.56942e-05 0.0) (0.000134557 1.74655e-05 0.0) (0.000111144 1.86515e-05 0.0) (8.67229e-05 1.89528e-05 0.0) (6.25368e-05 1.8105e-05 0.0) (4.01035e-05 1.59403e-05 0.0) (2.1059e-05 1.24849e-05 0.0) (6.87406e-06 8.07689e-06 0.0) (-1.57635e-06 3.46033e-06 0.0) (-4.56177e-06 -2.57649e-07 0.0) (-3.93064e-06 -2.03481e-06 0.0) (-2.13402e-06 -2.09279e-06 0.0) (-7.26986e-07 -1.32574e-06 0.0) (-5.5927e-08 -5.67044e-07 0.0) (2.43387e-08 -7.476e-08 0.0) (-7.43189e-16 -4.12995e-15 0.0) (1.14064e-14 -4.11516e-14 0.0) (6.86328e-14 -5.91549e-14 0.0) (1.08464e-13 -4.52209e-14 0.0) (1.20219e-13 -4.56938e-14 0.0) (-1.8657e-07 5.26523e-07 0.0) (-7.7332e-07 5.81111e-07 0.0) (-1.16485e-06 3.81097e-07 0.0) (-1.20219e-06 6.16409e-08 0.0) (-8.32376e-07 -2.81288e-07 0.0) (-7.46279e-08 -5.89138e-07 0.0) (1.00817e-06 -8.34413e-07 0.0) (2.33607e-06 -1.01131e-06 0.0) (3.83116e-06 -1.12758e-06 0.0) (5.42908e-06 -1.19868e-06 0.0) (7.08506e-06 -1.24441e-06 0.0) (8.77646e-06 -1.28743e-06 0.0) (1.05005e-05 -1.35338e-06 0.0) (1.22722e-05 -1.47277e-06 0.0) (1.41663e-05 -1.68561e-06 0.0) (1.64023e-05 -2.02933e-06 0.0) (1.86969e-05 -2.41608e-06 0.0) (0.000305412 7.22892e-05 0.0) (0.000312194 0.000108921 0.0) (0.000293826 0.000102728 0.0) (0.000262724 8.71139e-05 0.0) (0.000227861 7.21362e-05 0.0) (0.000193393 6.00016e-05 0.0) (0.000160955 5.06362e-05 0.0) (0.000131127 4.33439e-05 0.0) (0.000104074 3.73812e-05 0.0) (7.98516e-05 3.21353e-05 0.0) (5.85513e-05 2.71533e-05 0.0) (4.03347e-05 2.21381e-05 0.0) (2.54078e-05 1.6955e-05 0.0) (1.39452e-05 1.16584e-05 0.0) (5.95922e-06 6.54218e-06 0.0) (1.1662e-06 2.24242e-06 0.0) (-7.30633e-07 -1.10196e-07 0.0) (-1.12722e-13 -1.08338e-13 0.0) (-4.35966e-14 -7.72339e-14 0.0) (-9.25286e-15 -4.06818e-14 0.0) (1.22293e-07 8.54122e-07 0.0) (5.44221e-08 2.78952e-06 0.0) (-9.0931e-07 4.52169e-06 0.0) (-2.5216e-06 3.51144e-06 0.0) (-1.84788e-06 -3.15461e-06 0.0) (6.42063e-06 -1.63025e-05 0.0) (2.61574e-05 -3.22708e-05 0.0) (5.74597e-05 -4.74782e-05 0.0) (9.83502e-05 -5.96697e-05 0.0) (0.000146017 -6.79218e-05 0.0) (0.000197574 -7.22777e-05 0.0) (0.000250498 -7.33451e-05 0.0) (0.00030283 -7.19802e-05 0.0) (0.00035323 -6.90714e-05 0.0) (0.000400943 -6.53962e-05 0.0) (0.000445691 -6.15145e-05 0.0) (0.000487511 -5.76805e-05 0.0) (0.00052652 -5.37839e-05 0.0) (0.000562637 -4.93838e-05 0.0) (0.000595355 -4.38872e-05 0.0) (0.000623695 -3.6849e-05 0.0) (0.00064644 -2.82838e-05 0.0) (0.000662641 -1.87655e-05 0.0) (0.000672024 -9.00359e-06 0.0) (0.000674779 7.48232e-07 0.0) (0.00067097 1.07225e-05 0.0) (0.000660238 2.11171e-05 0.0) (0.00064213 3.1558e-05 0.0) (0.000616764 4.10954e-05 0.0) (0.000585136 4.87917e-05 0.0) (0.000548807 5.41991e-05 0.0) (0.000509423 5.73662e-05 0.0) (0.000468422 5.86609e-05 0.0) (0.000426901 5.85875e-05 0.0) (0.000385604 5.76458e-05 0.0) (0.000344966 5.62446e-05 0.0) (0.000305201 5.46617e-05 0.0) (0.000266391 5.30334e-05 0.0) (0.000228581 5.13609e-05 0.0) (0.000191852 4.95229e-05 0.0) (0.000156399 4.72886e-05 0.0) (0.000122584 4.4334e-05 0.0) (9.09865e-05 4.02701e-05 0.0) (6.24268e-05 3.47029e-05 0.0) (3.79498e-05 2.73555e-05 0.0) (1.87655e-05 1.83067e-05 0.0) (6.11101e-06 8.46992e-06 0.0) (3.41509e-07 5.48643e-07 0.0) (-1.10465e-11 -5.98467e-12 0.0) (-1.04975e-11 -1.23918e-11 0.0) (7.10555e-07 2.39839e-06 0.0) (3.57113e-07 4.63706e-06 0.0) (-7.76245e-07 7.47672e-07 0.0) (5.45635e-06 -1.47748e-05 0.0) (2.58972e-05 -3.33439e-05 0.0) (5.89431e-05 -4.97143e-05 0.0) (0.000101285 -6.16949e-05 0.0) (0.000149492 -6.88915e-05 0.0) (0.000200495 -7.17611e-05 0.0) (0.000251731 -7.1021e-05 0.0) (0.000301109 -6.7334e-05 0.0) (0.000346899 -6.1198e-05 0.0) (0.000387609 -5.2967e-05 0.0) (0.000421916 -4.29502e-05 0.0) (0.000448684 -3.15543e-05 0.0) (0.00046709 -1.9418e-05 0.0) (0.000476854 -7.453e-06 0.0) (0.000478435 3.31102e-06 0.0) (0.000473039 1.19939e-05 0.0) (0.000462395 1.80984e-05 0.0) (0.000448403 2.16055e-05 0.0) (0.000432786 2.28905e-05 0.0) (0.000416876 2.25693e-05 0.0) (0.000401517 2.13504e-05 0.0) (0.00038706 1.99262e-05 0.0) (0.000373405 1.89043e-05 0.0) (0.000360081 1.87642e-05 0.0) (0.000346336 1.98271e-05 0.0) (0.000331258 2.22293e-05 0.0) (0.000313905 2.59031e-05 0.0) (0.000293455 3.05764e-05 0.0) (0.000269345 3.57956e-05 0.0) (0.000241384 4.09691e-05 0.0) (0.000209827 4.54158e-05 0.0) (0.000175407 4.84094e-05 0.0) (0.000139356 4.92275e-05 0.0) (0.000103383 4.72321e-05 0.0) (6.96064e-05 4.20097e-05 0.0) (4.0378e-05 3.35937e-05 0.0) (1.79471e-05 2.27483e-05 0.0) (3.88575e-06 1.12232e-05 0.0) (-1.82287e-06 1.73536e-06 0.0) (-2.04579e-06 -2.96035e-06 0.0) (-7.17189e-07 -3.50715e-06 0.0) (3.4797e-08 -2.10373e-06 0.0) (9.00557e-08 -6.29922e-07 0.0) (1.3692e-14 -7.3385e-14 0.0) (7.99176e-14 -1.1991e-13 0.0) (1.19108e-13 -5.85209e-14 0.0) (1.13046e-13 -1.19797e-14 0.0) (-5.26732e-07 9.47571e-07 0.0) (-8.32387e-07 9.67655e-07 0.0) (-9.1795e-07 4.62375e-07 0.0) (-5.29446e-07 -3.00337e-07 0.0) (4.13501e-07 -1.11223e-06 0.0) (1.8726e-06 -1.84048e-06 0.0) (3.75294e-06 -2.42096e-06 0.0) (5.94221e-06 -2.83917e-06 0.0) (8.33385e-06 -3.11184e-06 0.0) (1.08398e-05 -3.27319e-06 0.0) (1.33967e-05 -3.36615e-06 0.0) (1.59669e-05 -3.43751e-06 0.0) (1.85333e-05 -3.53515e-06 0.0) (2.10915e-05 -3.70617e-06 0.0) (2.369e-05 -3.99322e-06 0.0) (2.65373e-05 -4.40482e-06 0.0) (2.93107e-05 -4.79583e-06 0.0) (0.00030398 5.84225e-05 0.0) (0.000313851 0.000108679 0.0) (0.000307246 0.000120476 0.0) (0.000287413 0.000115552 0.0) (0.000259421 0.000105067 0.0) (0.000227617 9.37891e-05 0.0) (0.000194787 8.33822e-05 0.0) (0.000162564 7.41079e-05 0.0) (0.000131906 6.56751e-05 0.0) (0.000103433 5.76377e-05 0.0) (7.76314e-05 4.95726e-05 0.0) (5.49526e-05 4.1174e-05 0.0) (3.58343e-05 3.23296e-05 0.0) (2.06555e-05 2.32015e-05 0.0) (9.62744e-06 1.43089e-05 0.0) (2.65574e-06 6.5827e-06 0.0) (-6.83677e-07 1.27525e-06 0.0) (-1.23304e-06 -7.83717e-07 0.0) (-6.08543e-14 -1.29251e-13 0.0) (-2.82695e-14 -5.66343e-14 0.0) (3.58681e-07 3.90034e-07 0.0) (1.2986e-06 2.87742e-06 0.0) (1.963e-06 5.46188e-06 0.0) (1.1559e-06 3.75174e-06 0.0) (2.08157e-06 -8.28436e-06 0.0) (1.31205e-05 -3.30652e-05 0.0) (4.02062e-05 -6.24246e-05 0.0) (8.22048e-05 -8.96051e-05 0.0) (0.000135604 -0.000110831 0.0) (0.000196407 -0.00012479 0.0) (0.000260926 -0.000131784 0.0) (0.000326125 -0.000132991 0.0) (0.000389739 -0.000129949 0.0) (0.00045027 -0.000124224 0.0) (0.000506929 -0.000117192 0.0) (0.000559531 -0.000109867 0.0) (0.000608325 -0.000102744 0.0) (0.00065371 -9.56534e-05 0.0) (0.00069583 -8.77846e-05 0.0) (0.000734198 -7.79957e-05 0.0) (0.000767545 -6.53817e-05 0.0) (0.000794128 -4.99334e-05 0.0) (0.000812639 -3.28458e-05 0.0) (0.000823014 -1.56191e-05 0.0) (0.00082601 1.31166e-06 0.0) (0.000821964 1.86306e-05 0.0) (0.00081018 3.69718e-05 0.0) (0.000789547 5.57152e-05 0.0) (0.000759861 7.29557e-05 0.0) (0.000722396 8.68506e-05 0.0) (0.000679248 9.66151e-05 0.0) (0.000632499 0.000102404 0.0) (0.000583858 0.000104916 0.0) (0.000534567 0.000105053 0.0) (0.000485427 0.000103686 0.0) (0.000436887 0.000101512 0.0) (0.000389151 9.89971e-05 0.0) (0.000342295 9.63665e-05 0.0) (0.000296357 9.36193e-05 0.0) (0.00025143 9.05532e-05 0.0) (0.000207725 8.67899e-05 0.0) (0.00016563 8.18024e-05 0.0) (0.000125762 7.49585e-05 0.0) (8.90048e-05 6.56052e-05 0.0) (5.6522e-05 5.32392e-05 0.0) (2.98045e-05 3.7834e-05 0.0) (1.07866e-05 2.04823e-05 0.0) (7.68412e-07 4.54568e-06 0.0) (-2.54281e-12 -4.743e-12 0.0) (-3.87416e-12 -1.18494e-11 0.0) (-4.33919e-12 -1.77044e-11 0.0) (2.1445e-06 4.91989e-06 0.0) (1.24129e-06 -8.33774e-07 0.0) (9.7503e-06 -3.15205e-05 0.0) (3.9472e-05 -6.54287e-05 0.0) (8.45184e-05 -9.37991e-05 0.0) (0.000139508 -0.000113831 0.0) (0.000200141 -0.000125439 0.0) (0.000262975 -0.00012966 0.0) (0.000325284 -0.000127784 0.0) (0.000384897 -0.000120926 0.0) (0.000440008 -0.00010989 0.0) (0.000489015 -9.5227e-05 0.0) (0.000530415 -7.74086e-05 0.0) (0.000562807 -5.70851e-05 0.0) (0.000585064 -3.53508e-05 0.0) (0.000596707 -1.38575e-05 0.0) (0.000598258 5.49018e-06 0.0) (0.000591276 2.10655e-05 0.0) (0.000578032 3.1971e-05 0.0) (0.00056097 3.82166e-05 0.0) (0.000542228 4.05237e-05 0.0) (0.000523385 4.00195e-05 0.0) (0.00050539 3.79699e-05 0.0) (0.00048859 3.55952e-05 0.0) (0.000472802 3.3959e-05 0.0) (0.000457405 3.3903e-05 0.0) (0.000441448 3.59959e-05 0.0) (0.000423773 4.04833e-05 0.0) (0.000403181 4.72479e-05 0.0) (0.000378616 5.58038e-05 0.0) (0.000349343 6.53398e-05 0.0) (0.00031509 7.48059e-05 0.0) (0.000276116 8.30064e-05 0.0) (0.000233248 8.86738e-05 0.0) (0.000187888 9.05426e-05 0.0) (0.000142023 8.74653e-05 0.0) (9.81985e-05 7.86281e-05 0.0) (5.94069e-05 6.39192e-05 0.0) (2.88093e-05 4.4452e-05 0.0) (9.13231e-06 2.31673e-05 0.0) (1.27396e-06 5.1897e-06 0.0) (8.01874e-07 -3.3354e-06 0.0) (1.46952e-06 -4.27621e-06 0.0) (9.67794e-07 -2.18255e-06 0.0) (2.64836e-07 -2.90419e-07 0.0) (1.44493e-14 -1.03449e-13 0.0) (4.85708e-14 -2.14023e-13 0.0) (1.30672e-13 -9.29938e-14 0.0) (-8.18323e-08 5.59003e-07 0.0) (-3.47135e-07 1.26315e-06 0.0) (-4.24077e-07 1.06638e-06 0.0) (-5.48675e-08 9.19601e-08 0.0) (9.89349e-07 -1.27298e-06 0.0) (2.72986e-06 -2.68256e-06 0.0) (5.06503e-06 -3.92075e-06 0.0) (7.85068e-06 -4.88927e-06 0.0) (1.09411e-05 -5.57149e-06 0.0) (1.42081e-05 -5.99973e-06 0.0) (1.75492e-05 -6.23218e-06 0.0) (2.08901e-05 -6.33831e-06 0.0) (2.41837e-05 -6.39011e-06 0.0) (2.74015e-05 -6.45605e-06 0.0) (3.05235e-05 -6.59508e-06 0.0) (3.35825e-05 -6.84648e-06 0.0) (3.68006e-05 -7.19767e-06 0.0) (3.98687e-05 -7.50256e-06 0.0) (0.000302679 4.93934e-05 0.0) (0.000310723 0.000105168 0.0) (0.000308833 0.000129775 0.0) (0.000296066 0.000135807 0.0) (0.000274359 0.000132406 0.0) (0.000246809 0.00012486 0.0) (0.00021608 0.000115797 0.0) (0.000184126 0.000106283 0.0) (0.000152329 9.655e-05 0.0) (0.000121703 8.64398e-05 0.0) (9.30675e-05 7.56606e-05 0.0) (6.71602e-05 6.39589e-05 0.0) (4.46965e-05 5.12683e-05 0.0) (2.6357e-05 3.78621e-05 0.0) (1.26962e-05 2.45009e-05 0.0) (3.96048e-06 1.25142e-05 0.0) (-1.93467e-07 3.65793e-06 0.0) (-1.18083e-06 -6.57064e-07 0.0) (-6.80591e-07 -1.1826e-06 0.0) (-1.37191e-13 -9.61694e-14 0.0) (-1.72852e-09 -1.15163e-09 0.0) (-1.03416e-09 -1.38843e-09 0.0) (3.21104e-06 4.78264e-06 0.0) (3.72638e-06 3.98057e-06 0.0) (3.2644e-06 -1.3517e-05 0.0) (1.56062e-05 -5.47255e-05 0.0) (5.05084e-05 -0.000101635 0.0) (0.000103585 -0.00014309 0.0) (0.000168827 -0.000174072 0.0) (0.000240863 -0.000193424 0.0) (0.000315339 -0.000202149 0.0) (0.000388944 -0.000202286 0.0) (0.000459331 -0.000196228 0.0) (0.000525027 -0.000186342 0.0) (0.00058536 -0.000174718 0.0) (0.000640379 -0.000162955 0.0) (0.00069074 -0.000151899 0.0) (0.00073739 -0.000141349 0.0) (0.000780983 -0.000129969 0.0) (0.000821238 -0.000115753 0.0) (0.000856577 -9.69789e-05 0.0) (0.000884431 -7.34871e-05 0.0) (0.000902897 -4.75882e-05 0.0) (0.000912445 -2.22848e-05 0.0) (0.000915072 1.79293e-06 0.0) (0.000911721 2.64525e-05 0.0) (0.000901049 5.3458e-05 0.0) (0.000880597 8.19773e-05 0.0) (0.000849431 0.00010845 0.0) (0.00080923 0.000129575 0.0) (0.000762823 0.000144231 0.0) (0.000712711 0.000152868 0.0) (0.000660736 0.000156684 0.0) (0.000608121 0.000157092 0.0) (0.000555585 0.000155387 0.0) (0.000503477 0.000152574 0.0) (0.000451917 0.000149303 0.0) (0.000400919 0.000145875 0.0) (0.000350488 0.000142274 0.0) (0.000300694 0.000138207 0.0) (0.000251731 0.000133145 0.0) (0.000203966 0.000126357 0.0) (0.000157987 0.000116956 0.0) (0.000114655 0.000103983 0.0) (7.51785e-05 8.65777e-05 0.0) (4.1318e-05 6.43334e-05 0.0) (1.58632e-05 3.80425e-05 0.0) (1.30943e-06 1.10823e-05 0.0) (-4.28429e-13 -4.11991e-12 0.0) (-9.33479e-13 -1.14806e-11 0.0) (-1.37321e-12 -1.74916e-11 0.0) (-1.53725e-12 -2.21809e-11 0.0) (-7.68217e-08 -2.60881e-06 0.0) (9.24238e-06 -5.6317e-05 0.0) (5.10362e-05 -0.000109048 0.0) (0.000108749 -0.000150074 0.0) (0.000174962 -0.000177547 0.0) (0.000245171 -0.000192538 0.0) (0.00031609 -0.000197046 0.0) (0.00038526 -0.000193067 0.0) (0.000450792 -0.000182174 0.0) (0.00051111 -0.000165427 0.0) (0.000564746 -0.000143482 0.0) (0.000610185 -0.000116848 0.0) (0.000645812 -8.63e-05 0.0) (0.000670101 -5.33612e-05 0.0) (0.000682232 -2.06182e-05 0.0) (0.000682734 8.83015e-06 0.0) (0.000673573 3.23401e-05 0.0) (0.000657669 4.8513e-05 0.0) (0.000638065 5.7496e-05 0.0) (0.000617255 6.05393e-05 0.0) (0.000596945 5.94486e-05 0.0) (0.000578061 5.61675e-05 0.0) (0.000560849 5.25217e-05 0.0) (0.000544988 5.00844e-05 0.0) (0.000529693 5.01049e-05 0.0) (0.000513807 5.34425e-05 0.0) (0.000495921 6.04822e-05 0.0) (0.000474555 7.10578e-05 0.0) (0.000448386 8.44305e-05 0.0) (0.000416475 9.93591e-05 0.0) (0.000378432 0.000114254 0.0) (0.000334473 0.000127336 0.0) (0.00028542 0.000136736 0.0) (0.000232705 0.000140571 0.0) (0.000178407 0.00013706 0.0) (0.00012531 0.000124778 0.0) (7.69394e-05 0.000103141 0.0) (3.75068e-05 7.32276e-05 0.0) (1.15964e-05 3.89806e-05 0.0) (2.51499e-06 8.85195e-06 0.0) (2.90695e-06 -3.60334e-06 0.0) (2.45358e-06 -3.76648e-06 0.0) (-1.99201e-10 2.44473e-10 0.0) (-2.62318e-10 1.26034e-10 0.0) (9.85966e-15 -1.20521e-13 0.0) (4.56503e-14 -3.85061e-13 0.0) (1.8151e-14 -8.48813e-13 0.0) (6.09567e-08 6.23721e-07 0.0) (1.47175e-07 1.36649e-06 0.0) (3.50478e-07 7.85599e-07 0.0) (1.34013e-06 -9.17572e-07 0.0) (3.29349e-06 -3.08204e-06 0.0) (6.08185e-06 -5.19199e-06 0.0) (9.48757e-06 -6.96757e-06 0.0) (1.3301e-05 -8.30395e-06 0.0) (1.73452e-05 -9.20326e-06 0.0) (2.14795e-05 -9.72593e-06 0.0) (2.55976e-05 -9.96022e-06 0.0) (2.96245e-05 -1.00041e-05 0.0) (3.35122e-05 -9.95424e-06 0.0) (3.72297e-05 -9.89802e-06 0.0) (4.07528e-05 -9.90574e-06 0.0) (4.41157e-05 -1.00189e-05 0.0) (4.75671e-05 -1.02256e-05 0.0) (5.08223e-05 -1.04143e-05 0.0) (0.000301653 4.39148e-05 0.0) (0.000307018 0.00010199 0.0) (0.000306337 0.000135207 0.0) (0.000297353 0.00015057 0.0) (0.000280225 0.000154689 0.0) (0.000256732 0.000152271 0.0) (0.000228915 0.000146181 0.0) (0.000198562 0.000137929 0.0) (0.000167121 0.000128143 0.0) (0.000135766 0.000116932 0.0) (0.000105503 0.000104143 0.0) (7.72784e-05 8.95704e-05 0.0) (5.20635e-05 7.31549e-05 0.0) (3.08858e-05 5.52174e-05 0.0) (1.47754e-05 3.67149e-05 0.0) (4.55582e-06 1.9472e-05 0.0) (2.78119e-07 6.19865e-06 0.0) (-3.13205e-07 -3.10844e-07 0.0) (-8.41631e-08 -1.51246e-06 0.0) (-2.53973e-09 -5.67813e-07 0.0) (-5.77832e-10 -8.91846e-10 0.0) (-5.96225e-10 -1.36826e-09 0.0) (-5.87885e-10 -1.74776e-09 0.0) (3.7425e-06 4.07863e-06 0.0) (2.54885e-07 -1.63462e-05 0.0) (1.2131e-05 -8.18233e-05 0.0) (5.71065e-05 -0.000151089 0.0) (0.000122711 -0.000208212 0.0) (0.000199445 -0.000248306 0.0) (0.000280795 -0.000271453 0.0) (0.000362156 -0.000279976 0.0) (0.000440285 -0.000277067 0.0) (0.000512993 -0.000266098 0.0) (0.000578976 -0.000250301 0.0) (0.000637753 -0.000232571 0.0) (0.000689682 -0.000215248 0.0) (0.000735991 -0.000199741 0.0) (0.000778498 -0.00018591 0.0) (0.000818763 -0.000171704 0.0) (0.000857019 -0.000153764 0.0) (0.00089138 -0.000128884 0.0) (0.000917898 -9.63954e-05 0.0) (0.000933547 -6.06614e-05 0.0) (0.000939832 -2.7583e-05 0.0) (0.000941178 2.03298e-06 0.0) (0.000939714 3.24342e-05 0.0) (0.00093294 6.78771e-05 0.0) (0.000915848 0.000107455 0.0) (0.000886171 0.000144626 0.0) (0.000846354 0.000173644 0.0) (0.000800361 0.000193245 0.0) (0.000751031 0.000204572 0.0) (0.00070012 0.000209563 0.0) (0.000648644 0.000210244 0.0) (0.000597098 0.000208361 0.0) (0.000545638 0.000205206 0.0) (0.000494242 0.00020158 0.0) (0.000442833 0.000197821 0.0) (0.000391368 0.000193871 0.0) (0.000339888 0.000189338 0.0) (0.000288564 0.000183547 0.0) (0.00023772 0.000175578 0.0) (0.000187871 0.000164297 0.0) (0.000139781 0.000148409 0.0) (9.45776e-05 0.000126561 0.0) (5.41463e-05 9.7616e-05 0.0) (2.20714e-05 6.13831e-05 0.0) (2.11174e-06 2.03956e-05 0.0) (1.6957e-14 -3.72701e-12 0.0) (3.39555e-13 -1.13393e-11 0.0) (8.90531e-13 -1.79768e-11 0.0) (6.27017e-13 -2.29255e-11 0.0) (6.89477e-13 -2.5883e-11 0.0) (7.45278e-06 -9.05802e-05 0.0) (6.54462e-05 -0.00016514 0.0) (0.00013531 -0.000217666 0.0) (0.00021004 -0.000250382 0.0) (0.000286103 -0.000266663 0.0) (0.00036087 -0.000269809 0.0) (0.00043245 -0.000262544 0.0) (0.000499476 -0.000246842 0.0) (0.00056083 -0.000223919 0.0) (0.000615399 -0.00019439 0.0) (0.000661841 -0.000158589 0.0) (0.000698389 -0.000117144 0.0) (0.000722958 -7.18443e-05 0.0) (0.000734159 -2.64504e-05 0.0) (0.000732465 1.42773e-05 0.0) (0.000720363 4.62972e-05 0.0) (0.000701618 6.75995e-05 0.0) (0.000679979 7.87078e-05 0.0) (0.000658205 8.16916e-05 0.0) (0.000637958 7.9239e-05 0.0) (0.000619986 7.40745e-05 0.0) (0.000604331 6.86641e-05 0.0) (0.000590492 6.51009e-05 0.0) (0.000577518 6.50623e-05 0.0) (0.000564057 6.97407e-05 0.0) (0.000548436 7.97081e-05 0.0) (0.000528847 9.47661e-05 0.0) (0.000503637 0.000113888 0.0) (0.000471615 0.000135319 0.0) (0.000432259 0.000156848 0.0) (0.000385718 0.000176072 0.0) (0.000332746 0.00019051 0.0) (0.000274672 0.000197643 0.0) (0.00021346 0.000194978 0.0) (0.000151861 0.000180247 0.0) (9.3631e-05 0.000151936 0.0) (4.38744e-05 0.000110303 0.0) (9.77142e-06 5.93008e-05 0.0) (6.39691e-07 1.09734e-05 0.0) (3.02401e-06 -3.58415e-06 0.0) (-9.07733e-11 3.26226e-10 0.0) (-8.16644e-11 2.34303e-10 0.0) (-7.4764e-11 1.07071e-10 0.0) (1.50872e-14 -1.41607e-13 0.0) (1.21037e-13 -5.24861e-13 0.0) (1.82509e-13 -1.01871e-12 0.0) (2.57928e-13 -1.44567e-12 0.0) (4.57198e-07 1.2379e-06 0.0) (1.10874e-06 -1.78915e-08 0.0) (3.13581e-06 -2.8598e-06 0.0) (6.42211e-06 -6.03694e-06 0.0) (1.05833e-05 -8.89019e-06 0.0) (1.52715e-05 -1.11488e-05 0.0) (2.02279e-05 -1.27537e-05 0.0) (2.52649e-05 -1.37555e-05 0.0) (3.02476e-05 -1.42567e-05 0.0) (3.50805e-05 -1.43809e-05 0.0) (3.96998e-05 -1.42553e-05 0.0) (4.40667e-05 -1.39999e-05 0.0) (4.81579e-05 -1.37204e-05 0.0) (5.19563e-05 -1.35e-05 0.0) (5.55079e-05 -1.339e-05 0.0) (5.90902e-05 -1.33948e-05 0.0) (6.24437e-05 -1.3451e-05 0.0) (0.000300939 4.07013e-05 0.0) (0.000303967 0.000100092 0.0) (0.000303035 0.00013929 0.0) (0.000295853 0.000162143 0.0) (0.000281785 0.000173203 0.0) (0.000261645 0.000176274 0.0) (0.000236781 0.000174031 0.0) (0.000208597 0.000168115 0.0) (0.000178369 0.000159368 0.0) (0.000147226 0.000148073 0.0) (0.000116193 0.000134163 0.0) (8.62964e-05 0.000117418 0.0) (5.86694e-05 9.76875e-05 0.0) (3.46529e-05 7.5186e-05 0.0) (1.58373e-05 5.0897e-05 0.0) (3.95908e-06 2.70988e-05 0.0) (1.48832e-07 7.96589e-06 0.0) (6.6322e-07 -4.40973e-07 0.0) (6.56648e-07 -1.425e-06 0.0) (-7.71537e-12 4.0909e-12 0.0) (-1.78895e-10 -7.55389e-10 0.0) (-2.40881e-10 -1.32941e-09 0.0) (-2.66981e-10 -1.71263e-09 0.0) (-2.69468e-10 -2.02765e-09 0.0) (-5.06928e-06 -1.56444e-05 0.0) (3.89211e-06 -0.000117991 0.0) (6.41918e-05 -0.000213723 0.0) (0.000144146 -0.000285763 0.0) (0.000231202 -0.000332322 0.0) (0.000318985 -0.000356216 0.0) (0.000403432 -0.000361664 0.0) (0.000481787 -0.000353127 0.0) (0.000552206 -0.000334913 0.0) (0.000613595 -0.000311089 0.0) (0.000665617 -0.000285395 0.0) (0.000708855 -0.000261111 0.0) (0.000745166 -0.00024059 0.0) (0.000777598 -0.000224034 0.0) (0.000809145 -0.000208481 0.0) (0.000841037 -0.000188523 0.0) (0.000871223 -0.000158302 0.0) (0.000893461 -0.000115686 0.0) (0.000902793 -6.89907e-05 0.0) (0.000902491 -2.95153e-05 0.0) (0.000901243 1.9124e-06 0.0) (0.000903135 3.42907e-05 0.0) (0.000903881 7.67573e-05 0.0) (0.000894137 0.000128726 0.0) (0.000869442 0.000178361 0.0) (0.000833581 0.000215533 0.0) (0.000792304 0.000239592 0.0) (0.00074849 0.000253122 0.0) (0.000703425 0.000259061 0.0) (0.00065772 0.000260089 0.0) (0.000611551 0.000258365 0.0) (0.000564837 0.000255404 0.0) (0.000517402 0.000252086 0.0) (0.000469089 0.000248731 0.0) (0.000419828 0.000245203 0.0) (0.000369664 0.000240996 0.0) (0.000318767 0.000235299 0.0) (0.000267438 0.000227037 0.0) (0.000216114 0.000214877 0.0) (0.000165398 0.000197215 0.0) (0.000116174 0.000172162 0.0) (7.00955e-05 0.000137578 0.0) (3.10705e-05 9.14395e-05 0.0) (3.71972e-06 3.36633e-05 0.0) (2.06002e-13 -4.1581e-12 0.0) (1.46149e-12 -1.21239e-11 0.0) (2.94046e-12 -1.88412e-11 0.0) (3.28427e-12 -2.45768e-11 0.0) (3.09335e-12 -3.28733e-11 0.0) (1.74549e-05 -0.000139842 0.0) (9.19875e-05 -0.000233113 0.0) (0.000169705 -0.000293467 0.0) (0.000247866 -0.000328218 0.0) (0.000324654 -0.000343301 0.0) (0.000398218 -0.000343313 0.0) (0.000467264 -0.000331624 0.0) (0.000530993 -0.000310535 0.0) (0.000588857 -0.000281357 0.0) (0.000640302 -0.000244534 0.0) (0.000684414 -0.000199948 0.0) (0.00071944 -0.000147632 0.0) (0.000742528 -8.92336e-05 0.0) (0.000751413 -3.00612e-05 0.0) (0.000746446 2.28043e-05 0.0) (0.000730791 6.34274e-05 0.0) (0.0007093 8.90223e-05 0.0) (0.00068653 0.00010096 0.0) (0.000665292 0.000102574 0.0) (0.000646936 9.76597e-05 0.0) (0.000631833 8.97759e-05 0.0) (0.000619729 8.19909e-05 0.0) (0.000609945 7.68656e-05 0.0) (0.000601423 7.64986e-05 0.0) (0.000592671 8.24742e-05 0.0) (0.000581758 9.56388e-05 0.0) (0.00056649 0.000115811 0.0) (0.000544793 0.00014164 0.0) (0.000515173 0.000170737 0.0) (0.00047699 0.00020016 0.0) (0.000430367 0.000226859 0.0) (0.000375977 0.000247795 0.0) (0.000314955 0.000259883 0.0) (0.000248948 0.00025994 0.0) (0.000180337 0.00024474 0.0) (0.000112545 0.00021138 0.0) (5.06707e-05 0.000158225 0.0) (4.17351e-06 8.71183e-05 0.0) (-3.26911e-06 1.08578e-05 0.0) (-4.20278e-11 3.8391e-10 0.0) (-3.57384e-11 3.11828e-10 0.0) (-2.23101e-11 2.1751e-10 0.0) (-1.15532e-11 8.73299e-11 0.0) (3.02942e-14 -2.054e-13 0.0) (2.06282e-13 -6.51034e-13 0.0) (3.80136e-13 -1.13878e-12 0.0) (4.4224e-13 -1.53769e-12 0.0) (4.8527e-13 -1.5335e-12 0.0) (1.46405e-06 -2.04047e-06 0.0) (5.43003e-06 -6.39668e-06 0.0) (1.06929e-05 -1.06174e-05 0.0) (1.65788e-05 -1.40763e-05 0.0) 