/*--------------------------------*- C++ -*----------------------------------*\
| =========                 |                                                 |
| \\      /  F ield         | OpenFOAM: The Open Source CFD Toolbox           |
|  \\    /   O peration     | Version:  2512                                  |
|   \\  /    A nd           | Website:  www.openfoam.com                      |
|    \\/     M anipulation  |                                                 |
\*---------------------------------------------------------------------------*/
FoamFile
{
    version     2.0;
    format      ascii;
    arch        "LSB;label=32;scalar=64";
    class       volScalarField;
    location    "2";
    object      B;
}
// * * * * * * * * * * * * * * * * * * * * * * * * * * * * * * * * * * * * * //

dimensions      [0 -3 0 0 1 0 0];

internalField nonuniform List<scalar> 79633(-1.97958e-243 -1.97848e-243 -5.45908e-238 2.9137e-230 -3.71672e-223 1.97758e-216 -6.08224e-210 1.32444e-203 -2.31025e-197 3.47924e-191 -4.73562e-185 5.9986e-179 -7.20506e-173 8.31317e-167 -9.29691e-161 1.01463e-154 -1.0858e-148 1.14378e-142 -1.18954e-136 1.22465e-130 -1.2505e-124 1.26878e-118 -1.28112e-112 1.28935e-106 -1.29498e-100 1.29962e-94 -1.30474e-88 1.31191e-82 -1.32235e-76 1.33699e-70 -1.35708e-64 1.38142e-58 -1.40851e-52 1.43331e-46 -1.44613e-40 5.66894e-28 3.43034e-24 1.16645e-22 -1.29696e-14 5999.18 6000.0 6000.0 6000.0 6000.0 6000.0 6000.0 6000.0 6000.0 6000.0 6000.0 6000.0 6000.0 6000.0 6000.0 6000.0 6000.0 0.825821 4.70146e-08 5.57228e-17 2.5021e-20 2.0129e-21 1.62929e-23 8.27531e-27 -9.80251e-29 -9.25348e-28 -4.94801e-27 -9.93422e-27 -3.30947e-27 -9.23164e-29 -1.15679e-31 -5.7154e-36 -8.84535e-41 -2.56413e-44 2.93808e-47 2.75116e-47 2.15991e-47 1.32599e-47 5.31592e-48 9.86516e-49 5.19026e-50 4.5811e-52 3.30484e-55 1.27588e-57 5.35589e-59 9.0286e-61 3.82805e-63 3.93904e-66 -6.27067e-66 -3.70263e-66 6.16077e-68 4.18875e-68 9.43869e-69 6.39111e-70 8.27996e-73 6.47929e-75 1.74795e-75 1.3794e-77 -1.8456e-81 -4.32826e-82 -2.36526e-82 -2.6873e-82 -2.36033e-82 -1.39266e-82 -4.33091e-83 -4.38228e-84 -1.39201e-85 -7.30118e-88 -2.72151e-90 -1.75284e-95 1.32466e-95 1.0016e-95 1.50159e-97 7.80529e-102 1.07026e-104 2.47845e-106 2.77313e-109 1.92479e-111 2.75199e-114 1.5544e-116 2.26341e-119 7.68023e-122 1.33276e-124 5.8812e-127 1.60876e-129 3.90945e-133 2.40304e-138 1.32367e-143 1.04715e-148 1.08593e-153 6.26652e-159 5.10905e-164 4.15325e-169 4.32012e-174 2.44782e-179 1.92775e-184 1.93017e-189 1.04882e-194 7.9089e-200 5.87748e-205 5.53121e-210 2.80782e-215 2.01008e-220 1.41276e-225 1.2565e-230 5.88829e-236 2.04372e-241 1.66468e-246 -1.39784e-249 -3.15944e-250 1.42999e-244 -7.01322e-239 3.45067e-233 -1.7083e-227 8.51296e-222 -4.27841e-216 2.16564e-210 -1.10696e-204 5.72009e-199 -2.98284e-193 1.57278e-187 -8.38447e-182 4.52039e-176 -2.45932e-170 1.35245e-164 -7.51123e-159 4.2039e-153 -2.3719e-147 1.3468e-141 -7.68433e-136 4.38608e-130 -2.48971e-124 1.39828e-118 -6.20654e-113 -4.49954e-103 -1.09426e-87 -8.37957e-84 -3.53216e-82 4.93363e-81 5998.3 6000.0 6000.0 6000.0 6000.0 6000.0 6000.0 6000.0 6000.0 6000.0 6000.0 6000.0 6000.0 6000.0 6000.0 6000.0 6000.0 1.68865 2.3581e-07 1.15198e-16 5.25202e-19 3.94245e-21 3.32063e-23 3.45053e-26 -1.51689e-28 -4.47099e-29 -3.28895e-30 -2.27398e-30 -2.45231e-30 -5.44428e-31 -4.60609e-33 -8.38837e-37 -8.46201e-42 -7.29752e-47 -6.69579e-52 6.93709e-58 -1.9377e-51 1.42297e-45 -1.03799e-39 1.10948e-26 1.69275e-23 3.61314e-22 -4.14759e-14 5998.01 6000.0 6000.0 6000.0 6000.0 6000.0 6000.0 6000.0 6000.0 6000.0 6000.0 6000.0 6000.0 6000.0 6000.0 6000.0 6000.0 2.01454 3.25718e-07 1.24613e-14 9.13948e-16 2.06111e-18 -4.22298e-20 -1.10706e-19 -1.10809e-19 -9.78855e-20 -7.6767e-20 -5.11425e-20 -2.86854e-20 -1.35883e-20 -4.54407e-21 -2.89808e-22 -4.17139e-23 -5.005e-24 -1.91799e-25 -1.80155e-27 -1.1951e-28 -4.03465e-30 -3.46214e-32 -8.18503e-34 -2.73929e-34 -2.66227e-34 -2.5912e-34 -3.34949e-34 -1.228e-34 -3.65918e-36 -2.88016e-38 -1.62415e-42 1.3981e-45 2.19609e-46 8.39576e-48 1.69763e-49 1.07157e-51 1.0271e-54 1.41975e-58 1.05188e-61 1.59927e-62 2.57879e-63 2.31459e-64 8.80789e-66 1.13531e-67 4.11265e-70 4.34691e-73 2.44533e-76 6.86101e-80 1.66007e-83 8.87101e-87 2.46333e-87 1.23381e-87 1.1596e-88 1.10375e-90 4.95927e-94 2.07684e-98 -4.64734e-99 -2.34819e-100 -2.42252e-103 -4.27046e-108 7.96304e-112 3.08119e-113 3.17519e-116 3.41632e-120 4.25378e-124 -6.68404e-123 -2.30889e-124 -1.28231e-127 -2.0048e-132 6.5887e-133 2.8923e-136 3.29133e-138 3.75393e-140 1.05928e-144 -3.66767e-148 -9.85143e-150 -1.63126e-152 -9.77261e-158 1.16219e-162 1.42242e-164 2.50756e-166 3.56211e-168 1.26859e-171 5.05991e-174 2.64575e-177 5.83099e-182 5.03962e-187 5.05322e-183 3.7479e-184 1.91011e-186 2.04709e-189 2.04526e-193 -3.52098e-196 -5.22174e-196 -2.53857e-197 -9.5294e-199 -5.1122e-202 -4.67394e-207 -1.23579e-211 -7.76643e-215 4.37082e-216 3.31064e-218 3.13151e-220 -1.00139e-220 -2.32416e-223 -3.90714e-227 -2.86892e-229 -6.30264e-233 -1.64431e-235 -1.6486e-237 -4.33026e-241 -3.90891e-246 6.29398e-250 2.9293e-253 1.53674e-254 1.2616e-258 3.41481e-258 1.60467e-259 2.33316e-262 1.85488e-263 4.73889e-266 1.09489e-267 3.9678e-271 1.90638e-266 -1.19727e-260 7.63388e-255 -4.83983e-249 3.06956e-243 -1.94767e-237 1.23646e-231 -7.78565e-226 4.97814e-220 -3.16695e-214 2.01656e-208 -1.28538e-202 8.20287e-197 -5.19696e-191 3.34479e-185 -2.14425e-179 1.37727e-173 -8.86568e-168 5.6737e-162 -3.69111e-156 2.39604e-150 -1.56093e-144 1.02101e-138 -6.70912e-133 4.3976e-127 -2.93549e-121 1.96345e-115 -1.32326e-109 8.99477e-104 -6.17353e-98 4.25598e-92 -2.9988e-86 2.13466e-80 -1.54207e-74 1.13164e-68 -8.43965e-63 6.36691e-57 -4.88587e-51 3.77112e-45 -2.89403e-39 1.47365e-26 4.41711e-23 9.50953e-22 -1.06657e-13 5998.31 6000.0 6000.0 6000.0 6000.0 6000.0 6000.0 6000.0 6000.0 6000.0 6000.0 6000.0 6000.0 6000.0 6000.0 6000.0 6000.0 1.69084 2.36077e-07 1.48309e-13 -1.19111e-17 -9.37823e-17 -1.46611e-16 -6.70354e-17 -1.19554e-17 -4.7727e-18 -1.15045e-18 -4.39365e-20 -7.31913e-22 -1.47973e-22 -3.18893e-23 -3.9684e-24 2.18475e-26 5.51189e-26 3.00187e-26 1.08243e-26 2.66127e-27 4.72714e-29 2.73216e-30 3.48954e-32 2.89358e-34 5.4743e-36 1.04065e-38 -9.38857e-39 -7.24133e-39 -3.66434e-39 -7.17135e-40 -3.28523e-42 -3.04325e-44 -1.90511e-46 -1.11497e-48 -5.62937e-51 -3.16514e-53 3.88512e-54 1.76412e-54 3.17571e-55 1.07728e-57 7.04275e-61 1.77304e-65 2.67544e-70 -7.33822e-73 -4.26409e-74 -3.62428e-77 1.19781e-78 2.8499e-80 5.39532e-84 3.63517e-89 -6.23217e-94 -1.00001e-95 -4.91103e-99 -2.34242e-103 9.70148e-104 1.13994e-105 3.75202e-109 3.88292e-114 -2.66717e-115 -1.45845e-116 -1.05423e-119 -8.97959e-125 3.33155e-128 1.03634e-129 2.0567e-130 9.14339e-133 9.86761e-137 -2.81824e-140 -3.00051e-141 -2.11902e-143 -8.21734e-148 1.84957e-150 1.35535e-151 2.29215e-154 1.46442e-158 5.56708e-163 -2.40266e-163 -7.65474e-165 -9.07599e-168 7.72737e-173 1.07836e-174 9.43175e-177 1.38088e-180 1.1299e-185 1.35708e-187 -3.14157e-183 2.44856e-177 -1.9098e-171 1.49505e-165 -1.17465e-159 9.26283e-154 -7.28971e-148 5.80571e-142 -4.62861e-136 3.70383e-130 -2.97485e-124 2.39826e-118 -1.93136e-112 1.57119e-106 -1.28049e-100 1.047e-94 -8.58489e-89 7.02696e-83 -5.77952e-77 4.74237e-71 -3.8691e-65 3.11779e-59 -2.45362e-53 1.79087e-47 6.2586e-34 2.0925e-28 2.84471e-23 4.77181e-18 5999.25 6000.0 6000.0 6000.0 6000.0 6000.0 6000.0 6000.0 6000.0 6000.0 6000.0 6000.0 6000.0 6000.0 6000.0 6000.0 6000.0 0.73872 -7.68145e-08 1.33688e-16 -6.01102e-18 -4.5265e-19 -2.56332e-21 -4.18582e-23 -3.67964e-25 -2.54924e-28 2.65384e-31 5.37393e-32 3.40806e-33 2.79146e-35 1.09634e-38 -2.51195e-41 -8.6186e-42 -6.02115e-43 -1.22115e-44 -1.1032e-47 -7.53027e-51 -1.87956e-53 -2.9512e-55 -1.04395e-57 2.27233e-57 2.18386e-57 7.13267e-59 2.60173e-61 4.03266e-64 -1.97958e-243 -1.97897e-243 -2.01405e-238 7.57483e-231 -7.14436e-224 2.89773e-217 -7.01985e-211 1.24606e-204 -1.82722e-198 2.3736e-192 -2.84529e-186 3.22818e-180 -3.52131e-174 3.73361e-168 -3.8778e-162 3.97016e-156 -4.02532e-150 4.05861e-144 -4.08379e-138 4.115e-132 -4.16364e-126 4.2417e-120 -4.36064e-114 4.53345e-108 -4.77272e-102 5.09364e-96 -5.51253e-90 6.04836e-84 -6.71776e-78 7.53064e-72 -8.48415e-66 9.51998e-60 -1.05122e-53 1.10555e-47 -1.03915e-41 7.64895e-30 2.17109e-26 1.84648e-25 5.14877e-19 5999.28 6000.0 6000.0 6000.0 6000.0 6000.0 6000.0 6000.0 6000.0 6000.0 6000.0 6000.0 6000.0 6000.0 6000.0 6000.0 6000.0 0.726605 2.06646e-08 8.85637e-13 1.84272e-15 8.27752e-18 1.95567e-21 -2.57917e-23 -1.7641e-23 -2.85446e-23 -4.55788e-23 -3.64128e-23 -7.07622e-24 -1.62848e-25 -2.9947e-28 -3.81727e-32 -1.01667e-36 -2.90555e-41 6.91071e-42 7.80812e-42 7.80881e-42 6.6603e-42 4.08283e-42 1.22643e-42 1.00825e-43 1.3468e-45 1.27424e-48 4.17443e-51 2.22275e-52 4.59283e-54 2.34093e-56 2.66422e-59 4.11554e-63 -1.36152e-62 -1.18701e-62 -5.87456e-64 5.36985e-66 1.34602e-66 1.09997e-67 8.14101e-69 7.46902e-71 -1.99406e-74 -1.05988e-74 -1.28759e-75 -2.56703e-76 -2.7184e-76 -3.22432e-76 -3.06963e-76 -1.96819e-76 -3.50741e-77 -2.30391e-78 -2.59841e-81 -4.69071e-86 6.95469e-90 9.77792e-90 6.70461e-91 9.52754e-94 4.82418e-99 2.27625e-100 8.30157e-102 1.1347e-104 2.88689e-107 1.48376e-107 1.4046e-108 2.33961e-111 9.43074e-114 1.83708e-116 9.03212e-119 4.95553e-121 2.79332e-124 7.57015e-129 1.20189e-133 2.96079e-138 9.49189e-143 1.68065e-147 4.17526e-152 1.02803e-156 3.22218e-161 5.47755e-166 1.28944e-170 3.84713e-175 6.21366e-180 1.38951e-184 3.05674e-189 8.53486e-194 1.29262e-198 2.71638e-203 5.62715e-208 1.48228e-212 2.12106e-217 4.21579e-222 1.06579e-226 1.46355e-231 2.68826e-236 7.80558e-235 -4.09205e-229 2.14841e-223 -1.13738e-217 6.06929e-212 -3.27636e-206 1.78262e-200 -9.83954e-195 5.53062e-189 -3.15066e-183 1.83396e-177 -1.09118e-171 6.66126e-166 -4.15812e-160 2.67377e-154 -1.7726e-148 1.20911e-142 -8.52215e-137 6.21479e-131 -4.71555e-125 3.70293e-119 -3.03131e-113 2.60252e-107 -2.3464e-101 2.19936e-95 -4.81549e-89 1.94523e-83 -1.44995e-77 -4.0646e-63 5998.57 6000.0 6000.0 6000.0 6000.0 6000.0 6000.0 6000.0 6000.0 6000.0 6000.0 6000.0 6000.0 6000.0 6000.0 6000.0 6000.0 1.42017 7.52747e-08 8.29089e-12 2.24781e-14 4.55815e-17 4.47062e-20 -3.49754e-23 -3.94209e-23 -1.69443e-23 -1.49032e-24 -9.09764e-26 -5.32157e-26 -1.77124e-26 -1.23905e-27 -8.73953e-30 -3.50731e-33 -9.00338e-38 -2.50031e-42 -3.11304e-47 -5.00622e-49 1.92492e-45 -1.84049e-39 1.85987e-28 7.41544e-26 1.22087e-21 -1.388e-13 5998.34 6000.0 6000.0 6000.0 6000.0 6000.0 6000.0 6000.0 6000.0 6000.0 6000.0 6000.0 6000.0 6000.0 6000.0 6000.0 6000.0 1.67881 1.03536e-07 4.73815e-10 3.70928e-12 3.7537e-15 7.94857e-18 4.96515e-18 3.32734e-18 9.26882e-19 -1.22628e-18 -2.00913e-18 -1.88631e-18 -1.48141e-18 -1.07499e-18 -7.45482e-19 -4.08292e-19 -1.58867e-19 -3.79042e-20 -2.34515e-21 -2.34602e-22 -1.30188e-23 -1.28771e-25 -2.00147e-27 -1.45496e-28 -9.55445e-29 -1.04954e-28 -1.27716e-28 -2.64544e-29 -3.55954e-31 -1.88503e-34 5.6015e-39 4.08977e-39 7.49278e-40 5.66238e-41 2.01186e-42 2.12075e-44 3.15755e-47 5.87089e-51 1.74405e-54 2.38115e-55 5.81052e-56 8.62693e-57 5.39138e-58 1.1023e-59 6.01463e-62 8.91185e-65 6.69204e-68 2.52239e-71 7.54031e-75 3.37818e-78 1.04123e-79 8.46775e-80 5.12534e-80 1.39562e-80 9.78635e-82 1.09591e-83 1.28485e-86 1.12565e-90 -2.53879e-92 -9.71461e-93 -5.9257e-94 -3.29948e-96 -1.12528e-99 6.49883e-104 3.96947e-104 2.90073e-105 1.556e-107 5.97843e-111 -4.86607e-115 -1.52135e-115 -3.48587e-117 -3.33613e-120 1.5663e-124 8.07094e-126 1.93213e-128 3.8636e-132 1.26919e-136 8.40999e-141 -3.78944e-145 -2.35616e-146 -8.67763e-149 -3.77429e-152 -4.04606e-154 -1.15156e-156 -2.75566e-159 -9.27663e-161 -1.0974e-163 -3.69649e-166 -3.15099e-168 -1.05396e-170 -4.91078e-173 -1.526e-175 1.68396e-179 3.39265e-179 4.60752e-180 3.85778e-182 1.82158e-185 1.51041e-189 9.39187e-193 -6.91894e-197 -2.83361e-198 1.38765e-201 5.47475e-201 1.06449e-202 1.44779e-206 2.54618e-211 -3.69287e-215 -4.20065e-217 -1.96361e-218 -3.11686e-220 -1.05593e-222 -2.38606e-226 -3.2072e-230 -1.31525e-231 -1.20382e-233 -1.14445e-236 -1.33378e-240 -1.91788e-244 -1.00031e-244 -1.28475e-245 -2.60754e-247 -8.09784e-250 -1.83839e-253 1.08644e-253 2.36142e-256 1.17779e-256 -4.42993e-251 2.88285e-245 -1.87683e-239 1.22567e-233 -7.86903e-228 5.26502e-222 -3.47561e-216 2.30393e-210 -1.53407e-204 1.02636e-198 -6.77241e-193 4.65284e-187 -3.16509e-181 2.16691e-175 -1.49382e-169 1.01952e-163 -7.24145e-158 5.11524e-152 -3.64818e-146 2.6293e-140 -1.91688e-134 1.39352e-128 -1.0559e-122 8.02671e-117 -6.20583e-111 4.88829e-105 -3.93012e-99 3.19031e-93 -2.71111e-87 2.34231e-81 -2.0778e-75 1.89192e-69 -1.76484e-63 1.66655e-57 -1.61157e-51 1.55456e-45 -1.47582e-39 3.26667e-28 5.6527e-25 8.8862e-22 -8.91757e-14 5998.58 6000.0 6000.0 6000.0 6000.0 6000.0 6000.0 6000.0 6000.0 6000.0 6000.0 6000.0 6000.0 6000.0 6000.0 6000.0 6000.0 1.4216 7.6297e-08 5.14736e-11 -6.41217e-12 -1.74608e-11 -1.65852e-11 -6.02309e-12 -6.03792e-13 -1.87799e-14 -6.3155e-16 -2.41929e-17 -2.35454e-18 -4.88803e-19 -1.66878e-19 -5.75191e-20 -1.11149e-20 -8.24675e-23 3.88888e-24 2.69111e-24 1.53752e-24 9.09886e-25 3.50353e-25 5.37763e-26 1.12986e-27 3.38124e-29 1.51085e-31 1.82333e-33 1.27504e-35 -3.28478e-36 -2.46615e-36 -1.33147e-36 -2.7431e-37 -3.41671e-39 -2.52365e-41 -1.28079e-43 -1.07101e-45 -3.89292e-48 -1.13898e-51 3.68694e-51 1.29772e-51 1.03511e-52 3.81112e-55 3.78008e-59 7.43789e-64 -2.13261e-67 -4.52e-68 -8.92513e-70 5.15503e-72 1.62238e-72 4.93889e-74 7.25355e-77 8.79396e-81 -8.57474e-83 -8.36107e-84 -2.66953e-86 -1.49707e-90 4.96445e-95 3.67425e-96 1.41356e-97 7.53782e-100 2.10628e-103 5.8682e-108 -5.15345e-111 -1.06119e-111 -1.72102e-113 -1.1177e-116 -1.74754e-121 1.29051e-122 9.53322e-124 2.14915e-126 1.24204e-130 -2.0096e-133 -3.02472e-134 -2.33633e-136 -6.28895e-140 -1.04993e-144 1.12786e-146 7.86363e-148 1.25245e-150 -2.5965e-155 -8.04118e-157 -1.35145e-159 -2.63209e-163 -1.78728e-167 2.75609e-172 3.45315e-170 7.71063e-172 7.56934e-166 -6.74009e-160 5.98108e-154 -5.35181e-148 4.76545e-142 -4.38786e-136 4.03862e-130 -3.75769e-124 3.53751e-118 -3.37283e-112 3.22403e-106 -3.1887e-100 3.18042e-94 -3.22868e-88 3.34061e-82 -3.49805e-76 3.79067e-70 -4.17863e-64 4.70644e-58 -5.40658e-52 6.30821e-46 -7.38894e-40 8.68924e-34 -9.67995e-28 9.66561e-22 -8.26604e-14 5999.34 6000.0 6000.0 6000.0 6000.0 6000.0 6000.0 6000.0 6000.0 6000.0 6000.0 6000.0 6000.0 6000.0 6000.0 6000.0 6000.0 0.654717 -1.78998e-08 -1.30056e-11 -4.65592e-12 -2.4093e-13 -1.05208e-15 -3.40289e-19 3.322e-23 3.95124e-24 8.35695e-26 4.53624e-28 1.36977e-30 5.7959e-33 6.07986e-36 1.80939e-38 -1.43291e-40 -1.54831e-40 -8.85258e-42 -1.82639e-42 -2.78261e-44 -6.52416e-47 -9.33884e-49 -1.24668e-50 -4.30193e-53 7.20321e-55 8.13368e-55 2.25863e-55 1.37403e-57 -1.97937e-243 -1.97909e-243 -4.66237e-239 9.53312e-232 -5.12717e-225 1.2394e-218 -1.89516e-212 2.26265e-206 -2.3746e-200 2.35337e-194 -2.32442e-188 2.40854e-182 -2.72728e-176 3.41528e-170 -4.62023e-164 6.50872e-158 -9.25701e-152 1.30669e-145 -1.81681e-139 2.48549e-133 -3.34844e-127 4.45504e-121 -5.87215e-115 7.69928e-109 -1.00727e-102 1.3195e-96 -1.73619e-90 2.30225e-84 -3.0835e-78 4.179e-72 -5.74982e-66 8.02182e-60 -1.14283e-53 1.66375e-47 -2.47995e-41 4.56045e-33 -6.34191e-29 8.6145e-23 -1.14525e-14 5999.16 6000.0 6000.0 6000.0 6000.0 6000.0 6000.0 6000.0 6000.0 6000.0 6000.0 6000.0 6000.0 6000.0 6000.0 6000.0 6000.0 0.849309 4.52281e-07 6.81933e-10 7.13171e-13 1.79288e-16 -2.8724e-18 -1.73082e-18 -3.84584e-19 -4.72967e-20 -8.98187e-21 -1.46633e-21 -9.02961e-23 -1.22823e-24 -2.50018e-27 -6.14433e-31 -2.65378e-35 2.00601e-37 3.18352e-37 4.26085e-37 5.20904e-37 5.43179e-37 5.0343e-37 2.5419e-37 3.31139e-38 4.78817e-40 5.46624e-43 3.17391e-45 2.23712e-46 5.33936e-48 3.18754e-50 4.53674e-53 1.62395e-56 1.10789e-59 -3.20718e-60 -4.15851e-60 -5.95903e-61 -8.42887e-63 7.30426e-66 3.81177e-66 8.14158e-68 -1.55133e-68 -6.90009e-69 -1.15333e-69 -1.05382e-70 -3.0058e-71 -3.12051e-71 -3.08056e-71 -2.51614e-71 -1.62195e-72 -5.6805e-75 -9.64738e-79 1.85167e-82 1.72153e-83 1.64489e-85 7.71581e-89 -1.53144e-90 -1.28392e-91 -4.10633e-94 -4.32198e-98 -2.29795e-100 -2.25204e-102 2.10751e-104 1.53207e-104 4.72855e-105 2.94198e-106 6.32943e-109 3.03152e-111 3.4283e-113 3.87448e-116 3.24814e-120 8.87341e-125 3.89987e-129 2.21296e-133 6.85404e-138 2.94335e-142 1.23986e-146 6.59303e-151 1.88886e-155 7.45386e-160 3.71201e-164 9.97158e-169 3.69741e-173 1.34512e-177 6.19655e-182 1.54516e-186 5.33613e-191 1.81358e-195 7.82606e-200 1.83219e-204 5.9513e-209 2.45645e-213 5.50321e-218 1.70867e-222 3.09903e-224 -1.32612e-219 7.40289e-214 -4.16954e-208 2.36388e-202 -1.35567e-196 7.80184e-191 -4.55405e-185 2.70357e-179 -1.62179e-173 9.94846e-168 -6.23949e-162 4.03478e-156 -2.67667e-150 1.84856e-144 -1.33343e-138 1.00459e-132 -8.00551e-127 6.77833e-121 -6.15729e-115 6.02494e-109 -6.46401e-103 7.73258e-97 -1.05799e-90 1.70808e-84 -3.36348e-78 8.07395e-72 -2.12597e-65 2.55665e-59 5998.36 6000.0 6000.0 6000.0 6000.0 6000.0 6000.0 6000.0 6000.0 6000.0 6000.0 6000.0 6000.0 6000.0 6000.0 6000.0 6000.0 1.63869 2.00952e-06 5.93693e-09 5.6171e-12 4.12913e-15 7.85165e-19 -2.71868e-19 -2.83601e-19 -1.94726e-19 -4.98644e-20 -2.69567e-21 -3.01784e-23 -1.36744e-24 -8.26818e-26 -1.36332e-27 -2.76126e-30 -4.00698e-34 -1.75579e-38 -3.69358e-43 -2.40824e-46 1.10021e-45 -9.49539e-40 1.77069e-31 -6.89836e-28 7.56743e-22 -1.20595e-13 5998.09 6000.0 6000.0 6000.0 6000.0 6000.0 6000.0 6000.0 6000.0 6000.0 6000.0 6000.0 6000.0 6000.0 6000.0 6000.0 6000.0 1.92592 1.85414e-05 5.9869e-08 1.61932e-10 1.91893e-13 3.43437e-14 4.34446e-14 4.42294e-14 3.57827e-14 2.14459e-14 9.39772e-15 3.00257e-15 6.78917e-16 9.48606e-17 -2.40216e-18 -1.00022e-17 -7.88005e-18 -4.87294e-18 -2.80351e-18 -1.15787e-18 -2.8367e-19 -2.05541e-20 -1.35135e-21 -7.57466e-23 -1.82542e-24 -3.79264e-25 -8.56968e-26 -3.28582e-27 -1.34614e-29 3.94495e-32 8.56335e-33 1.00758e-33 2.43994e-34 4.57701e-35 3.5729e-36 7.16819e-38 1.628e-40 4.47549e-44 9.12166e-48 6.49063e-49 2.18151e-49 5.30012e-50 5.67572e-51 1.94188e-52 1.67034e-54 3.65992e-57 3.9138e-60 2.05213e-63 7.707e-67 4.30659e-70 1.09813e-72 6.658e-73 6.73156e-73 6.10381e-73 3.65234e-73 9.38056e-74 6.48658e-75 7.78576e-77 1.13681e-79 1.55759e-83 -2.73599e-86 -1.58725e-86 -2.8158e-87 -8.17169e-89 -2.4241e-91 -5.39668e-95 1.00733e-98 3.45636e-99 4.08943e-100 7.11977e-102 1.01918e-104 8.64612e-109 -1.25305e-111 -4.20765e-112 -2.00511e-113 -7.08117e-116 -1.24895e-119 -4.74903e-124 3.17637e-128 2.19741e-129 1.12661e-131 6.45728e-135 6.02486e-138 2.75614e-139 4.32934e-141 7.1142e-144 7.76417e-148 3.60311e-151 5.12014e-154 -4.66013e-158 -2.15674e-158 -2.89335e-159 -2.47627e-161 1.96582e-163 2.1927e-164 6.05317e-167 7.77317e-171 8.3109e-175 7.96992e-176 4.98316e-178 3.22767e-181 -8.06773e-183 -8.38106e-184 -2.68275e-186 -1.00792e-190 -4.165e-195 1.18066e-197 2.24755e-199 2.1148e-201 6.6248e-204 1.03053e-207 5.54345e-211 9.98746e-213 6.29311e-215 4.29871e-218 8.87385e-222 5.1163e-222 3.03408e-224 4.97389e-226 1.75465e-228 3.4854e-230 1.79277e-232 -1.05335e-236 -5.9226e-237 -1.92631e-238 -5.03563e-241 -3.83675e-244 1.15798e-247 -1.16896e-241 3.23637e-237 -2.244e-231 1.67548e-225 -1.22343e-219 9.01835e-214 -6.71201e-208 5.0452e-202 -3.70455e-196 2.9318e-190 -2.27795e-184 1.79231e-178 -1.42933e-172 1.12027e-166 -9.47323e-161 7.92436e-155 -6.75524e-149 5.87865e-143 -5.23251e-137 4.63918e-131 -4.45568e-125 4.30039e-119 -4.28514e-113 4.41945e-107 -4.72866e-101 5.13875e-95 -6.05758e-89 7.29215e-83 -9.10944e-77 1.17429e-70 -1.54705e-64 2.0258e-58 -2.67447e-52 3.36169e-46 -3.89201e-40 4.71505e-31 4.73877e-28 1.08984e-23 -4.42972e-21 5998.36 6000.0 6000.0 6000.0 6000.0 6000.0 6000.0 6000.0 6000.0 6000.0 6000.0 6000.0 6000.0 6000.0 6000.0 6000.0 6000.0 1.63959 5.15623e-06 -2.66821e-09 -1.88467e-08 -2.32796e-08 -1.5427e-08 -4.8339e-09 -5.94162e-10 -2.42547e-11 -3.70404e-13 -9.84508e-15 -8.14197e-17 -7.91436e-18 -3.03514e-18 -1.70666e-18 -1.50202e-18 -5.1906e-19 -9.29005e-20 -1.45825e-20 -9.47117e-22 2.48407e-23 3.17875e-23 1.9962e-23 9.28035e-24 2.3693e-24 1.14069e-25 3.02138e-27 3.65986e-29 2.13667e-31 2.83198e-33 -2.90584e-34 -2.3186e-34 -1.1305e-34 -2.47396e-35 -6.65052e-37 -6.70665e-39 -3.27714e-41 -9.90175e-44 -1.66375e-46 1.40189e-48 9.02005e-49 1.3104e-49 2.50023e-51 4.05568e-54 -1.43529e-58 -1.79084e-59 -1.85353e-61 -1.46998e-64 2.23995e-68 3.05341e-68 1.29273e-68 1.05006e-69 9.29446e-72 6.04377e-75 2.63606e-79 -1.08636e-81 -3.97562e-82 -2.13166e-83 -8.94969e-86 -1.98925e-89 -2.836e-94 1.42207e-94 1.72532e-95 1.35988e-97 6.07936e-101 6.23569e-107 -5.14796e-106 -3.04065e-107 -8.45656e-110 -1.69195e-113 1.01411e-116 1.46802e-117 9.66987e-120 6.61213e-124 1.89698e-125 4.11793e-128 -7.01124e-133 -2.93691e-135 -9.02709e-139 3.43009e-142 9.61399e-143 7.27051e-144 3.78905e-146 2.18507e-149 -1.58403e-153 -3.38932e-154 -5.38915e-156 -2.60332e-159 -1.24e-160 5.34246e-155 -3.35194e-149 3.17534e-143 -3.14006e-137 3.11459e-131 -3.14131e-125 3.22529e-119 -3.37509e-113 3.55569e-107 -3.91619e-101 4.36727e-95 -4.98289e-89 5.81735e-83 -6.87385e-77 8.42578e-71 -1.04328e-64 1.30387e-58 -1.62478e-52 1.97526e-46 -2.23739e-40 2.17774e-34 -1.38145e-28 3.10606e-24 -1.75847e-21 5999.23 6000.0 6000.0 6000.0 6000.0 6000.0 6000.0 6000.0 6000.0 6000.0 6000.0 6000.0 6000.0 6000.0 6000.0 6000.0 6000.0 0.76889 -7.07518e-08 -7.39564e-08 -1.52272e-08 -4.7909e-10 -1.98475e-12 -9.94018e-16 1.30754e-19 2.03126e-20 6.2037e-22 4.30457e-24 6.22459e-27 1.85481e-30 4.81054e-32 6.27359e-33 3.73453e-34 5.09212e-36 1.20326e-38 -2.58646e-40 -1.20108e-40 -1.48669e-41 -6.96261e-43 -1.18301e-44 -4.78718e-47 -6.36659e-50 2.32226e-53 7.47782e-53 1.4137e-53 -1.97421e-243 -1.97477e-243 -8.90943e-240 8.32833e-233 -2.0377e-226 2.32293e-220 -1.8179e-214 1.25125e-208 -9.28761e-203 9.59819e-197 -1.52881e-190 3.05613e-184 -6.31897e-178 1.25852e-171 -2.3747e-165 4.25025e-159 -7.24728e-153 1.18586e-146 -1.87462e-140 2.88473e-134 -4.34559e-128 6.44836e-122 -9.47417e-116 1.38624e-109 -2.0278e-103 2.97782e-97 -4.40374e-91 6.57855e-85 -9.93788e-79 1.51822e-72 -2.34639e-66 3.63401e-60 -5.56238e-54 8.41612e-48 -1.24605e-41 2.40157e-36 -2.12827e-29 1.17922e-23 7.94029e-19 5999.05 6000.0 6000.0 6000.0 6000.0 6000.0 6000.0 6000.0 6000.0 6000.0 6000.0 6000.0 6000.0 6000.0 6000.0 6000.0 6000.0 0.954656 3.5688e-05 1.52134e-08 9.15892e-12 -4.02676e-15 -4.3966e-15 -2.18295e-15 -4.34151e-16 -2.99651e-17 -6.75681e-19 -6.55132e-21 -4.08588e-23 -1.2385e-25 7.91895e-32 1.76481e-31 1.98877e-32 5.8564e-33 7.44817e-33 1.10507e-32 1.4513e-32 1.3429e-32 7.84272e-33 1.80775e-33 9.55983e-35 7.3101e-37 5.83711e-39 9.36911e-40 9.1949e-41 2.30682e-42 1.60739e-44 2.97203e-47 1.27614e-50 1.09385e-53 3.17175e-56 -3.49806e-58 -4.40188e-58 -1.6484e-58 -5.10595e-60 -1.45493e-62 -3.84364e-63 -2.56327e-63 -1.25265e-63 -3.40577e-64 -4.11391e-65 -1.98049e-66 -1.72857e-67 -8.11908e-68 -1.03011e-68 -1.30569e-70 -4.78869e-74 4.84499e-75 4.87412e-76 2.69122e-78 1.19882e-81 -2.52612e-83 -2.816e-84 -3.69174e-86 -3.38109e-89 -4.82157e-92 -1.08648e-93 -1.43621e-95 -3.72937e-98 -2.31511e-101 3.84856e-102 1.64989e-102 2.9175e-103 2.84019e-104 9.71522e-106 1.85491e-108 5.1182e-112 4.64774e-116 3.98932e-120 3.72652e-124 1.72625e-128 1.04665e-132 6.00951e-137 4.26382e-141 1.60978e-145 8.31565e-150 5.40483e-154 1.89385e-158 9.16811e-163 4.36246e-167 2.6346e-171 8.63492e-176 3.92991e-180 1.76485e-184 1.00885e-188 3.13625e-193 1.35576e-197 7.46243e-202 2.23793e-206 1.14452e-210 4.43904e-212 -2.84159e-210 1.69593e-204 -1.01679e-198 6.12897e-193 -3.73468e-187 2.27313e-181 -1.40003e-175 8.73239e-170 -5.46228e-164 3.46924e-158 -2.22941e-152 1.4605e-146 -9.64934e-141 6.53154e-135 -4.52368e-129 3.19607e-123 -2.33444e-117 1.76875e-111 -1.40571e-105 1.1786e-99 -1.06774e-93 1.07398e-87 -1.22393e-81 1.69433e-75 -3.0023e-69 7.20922e-63 -6.79912e-56 9.56526e-45 5998.18 6000.0 6000.0 6000.0 6000.0 6000.0 6000.0 6000.0 6000.0 6000.0 6000.0 6000.0 6000.0 6000.0 6000.0 6000.0 6000.0 1.81823 0.000132365 9.85495e-08 5.31419e-11 1.78083e-14 -9.03292e-16 -2.84665e-16 -1.15388e-16 -7.01178e-17 -2.86143e-17 -4.87668e-18 -2.48984e-19 -2.58089e-21 -3.05697e-24 -2.79601e-28 -6.10268e-32 -1.65318e-35 -2.92073e-39 -2.02146e-43 -2.31184e-46 3.26442e-46 -3.30164e-40 4.38708e-34 -4.6955e-28 5.5188e-22 -1.55182e-13 5997.89 6000.0 6000.0 6000.0 6000.0 6000.0 6000.0 6000.0 6000.0 6000.0 6000.0 6000.0 6000.0 6000.0 6000.0 6000.0 6000.0 2.12658 0.000366464 3.25678e-07 5.1725e-10 2.90606e-12 3.40249e-12 5.06355e-12 6.00898e-12 5.60388e-12 4.33857e-12 2.77357e-12 1.47423e-12 6.43888e-13 2.25543e-13 6.14341e-14 1.24835e-14 1.75775e-15 1.24381e-16 -2.69135e-17 -2.68356e-17 -1.57895e-17 -7.08625e-18 -2.45825e-18 -4.99709e-19 -3.46625e-20 -9.27272e-22 -6.52295e-24 3.38969e-25 1.92401e-25 3.45994e-26 1.56999e-27 1.83459e-29 6.21257e-31 1.88355e-31 4.08205e-32 2.86579e-33 3.97428e-35 7.89289e-38 2.56555e-41 5.36637e-43 2.28249e-43 8.65607e-44 1.608e-44 9.69803e-46 1.39891e-47 4.95266e-50 8.47089e-53 6.41192e-56 3.1409e-59 2.31233e-62 2.69577e-65 1.30857e-66 2.48971e-67 2.94277e-68 2.20064e-69 2.13905e-70 1.72421e-71 5.34e-73 3.58542e-75 7.08907e-79 -2.02413e-78 -1.15431e-78 -2.18236e-79 -8.97971e-81 -5.51523e-83 -3.75892e-86 4.5183e-90 6.78932e-91 6.41167e-92 4.86216e-93 8.37698e-95 1.64619e-97 -6.21876e-102 -1.13686e-102 -2.39189e-104 -1.02413e-106 -4.68033e-109 -8.75442e-112 4.45447e-116 1.1816e-116 3.25234e-118 7.73767e-121 5.61695e-126 1.27412e-126 3.16323e-130 -3.08405e-132 -1.91238e-135 -4.23526e-138 -7.84694e-141 -3.61012e-142 2.92282e-142 3.55282e-144 -2.30286e-146 -1.02531e-146 -2.91119e-148 -3.09557e-151 -7.86282e-155 -4.69314e-158 -2.57954e-159 -1.09526e-161 2.91016e-165 2.06781e-166 1.5976e-169 1.7415e-173 7.77606e-178 1.33493e-181 -1.68713e-180 -2.64257e-183 -4.10712e-185 -2.31032e-187 -7.49202e-191 -3.91848e-195 5.62994e-200 -2.03076e-199 -5.59109e-202 -8.04157e-203 -4.81242e-205 -3.75737e-208 -1.44249e-209 -2.80541e-211 -4.26919e-213 -3.94498e-216 -1.15756e-220 3.24066e-221 4.95961e-222 5.61893e-224 4.25777e-227 2.35325e-231 3.1776e-235 4.90979e-236 -1.11987e-233 1.69618e-227 -1.50531e-224 1.31025e-218 -1.16992e-212 1.07299e-206 -9.59707e-201 9.57929e-195 -9.32111e-189 9.24535e-183 -9.35654e-177 9.23644e-171 -1.0193e-164 1.10653e-158 -1.23473e-152 1.41955e-146 -1.68601e-140 1.98888e-134 -2.64153e-128 3.57187e-122 -5.12657e-116 7.79659e-110 -1.25495e-103 2.06409e-97 -3.81134e-91 7.18963e-85 -1.41386e-78 2.85997e-72 -5.82849e-66 1.13937e-59 -2.16229e-53 3.59909e-47 -4.87178e-41 7.12549e-35 3.72858e-30 2.06438e-26 9.79213e-18 5998.18 6000.0 6000.0 6000.0 6000.0 6000.0 6000.0 6000.0 6000.0 6000.0 6000.0 6000.0 6000.0 6000.0 6000.0 6000.0 6000.0 1.81869 0.000188615 -1.0119e-06 -1.44282e-06 -1.11268e-06 -5.49674e-07 -1.62198e-07 -2.6029e-08 -1.9756e-09 -6.41835e-11 -5.53541e-13 1.31027e-14 1.30488e-14 1.02469e-14 4.36302e-15 4.28678e-16 -2.45034e-16 -2.01444e-16 -9.67341e-17 -2.16542e-17 -2.04255e-18 -7.98219e-20 -9.90853e-22 2.80464e-22 2.13841e-22 1.05419e-22 3.13028e-23 3.23511e-24 1.38474e-25 3.54327e-27 3.27269e-29 9.36509e-32 -9.68732e-33 -7.88432e-33 -3.59737e-33 -8.38119e-34 -6.03376e-35 -4.88453e-37 -1.20113e-39 -3.37788e-42 -6.71803e-45 1.75811e-46 8.86576e-47 1.05772e-47 1.72366e-49 3.08159e-52 4.49417e-56 -3.2402e-58 -1.26363e-58 -7.78753e-60 -3.94598e-62 -1.30154e-65 2.40385e-66 8.31695e-67 5.61112e-68 5.57208e-70 4.88655e-73 8.7035e-77 -6.2863e-78 -1.04252e-78 -1.06479e-80 -5.44011e-84 -2.49197e-88 4.68191e-91 2.94869e-91 3.31469e-92 3.28162e-94 1.82767e-97 -1.34461e-101 -1.54776e-102 -1.85306e-103 -1.1303e-104 -9.7639e-107 -4.87383e-110 -2.5932e-114 7.23678e-115 3.52511e-116 5.00855e-119 2.6152e-123 -1.16984e-126 -4.70603e-127 -3.76214e-128 -2.81307e-130 -1.16837e-133 -2.60902e-138 2.83695e-139 2.50136e-140 8.10419e-143 8.65287e-147 -6.45564e-151 -4.48461e-151 1.70206e-145 -1.93287e-139 2.21039e-133 -2.59735e-127 3.14098e-121 -3.91466e-115 4.94236e-109 -6.65541e-103 9.12588e-97 -1.29112e-90 1.88023e-84 -2.76661e-78 4.23784e-72 -6.46085e-66 9.71027e-60 -1.39599e-53 1.82563e-47 -1.97016e-41 1.47313e-35 -4.91117e-30 4.12985e-25 3.18524e-30 5999.13 6000.0 6000.0 6000.0 6000.0 6000.0 6000.0 6000.0 6000.0 6000.0 6000.0 6000.0 6000.0 6000.0 6000.0 6000.0 6000.0 0.867457 -1.75632e-05 -6.96227e-06 -7.32569e-07 -1.7293e-08 -7.8373e-11 -6.0065e-14 8.17571e-18 1.60729e-18 7.12431e-20 7.40481e-22 1.72383e-24 2.06074e-27 1.53041e-28 3.25379e-29 3.86187e-30 1.34305e-31 9.7767e-34 1.06035e-36 -1.68773e-38 -1.10548e-38 -3.15576e-39 -2.69989e-40 -5.59783e-42 -2.90457e-44 -3.52164e-47 -1.82193e-50 3.80054e-51 -1.91455e-243 -1.92162e-243 -1.55845e-240 6.06285e-234 -5.6341e-228 2.49254e-222 -9.43533e-217 6.60578e-211 -1.26776e-204 3.47028e-198 -9.54328e-192 2.43982e-185 -5.68781e-179 1.21244e-172 -2.39108e-166 4.43062e-160 -7.80625e-154 1.32292e-147 -2.17511e-141 3.49959e-135 -5.54062e-129 8.68495e-123 -1.35453e-116 2.11396e-110 -3.31301e-104 5.23571e-98 -8.36859e-92 1.35685e-85 -2.23227e-79 3.72192e-73 -6.28399e-67 1.06233e-60 -1.79106e-54 2.99012e-48 -4.8953e-42 3.7543e-36 -1.29189e-29 2.30251e-23 -1.8929e-14 5998.96 6000.0 6000.0 6000.0 6000.0 6000.0 6000.0 6000.0 6000.0 6000.0 6000.0 6000.0 6000.0 6000.0 6000.0 6000.0 5999.62 1.04396 0.000125274 3.48261e-08 1.69634e-11 -3.82357e-13 -2.84285e-13 -1.33824e-13 -3.49763e-14 -4.17845e-15 -1.78379e-16 -2.08875e-18 -5.19115e-21 -1.91224e-24 4.4825e-27 1.67729e-27 2.30414e-28 1.39853e-28 1.29944e-28 1.14292e-28 8.12611e-29 3.73017e-29 8.08555e-30 5.64358e-31 8.89175e-33 1.43427e-34 4.74792e-35 1.77317e-35 3.56933e-36 2.43271e-37 3.80184e-39 9.62297e-42 4.84264e-45 4.87698e-48 1.5264e-50 3.70386e-53 -9.65745e-57 -1.35722e-56 -4.01797e-57 -4.69604e-58 -2.14492e-58 -1.58927e-58 -9.77908e-59 -3.80193e-59 -7.07303e-60 -4.57922e-61 -8.68858e-63 -2.61018e-64 -7.08437e-67 1.07237e-67 3.06776e-68 1.48446e-69 9.68512e-72 6.8432e-75 5.05037e-79 -3.19253e-80 -1.83365e-80 -1.68869e-81 -2.34705e-83 -9.78197e-86 -2.62091e-87 -4.31289e-89 -1.29282e-91 -1.40654e-94 -3.17555e-97 -5.10878e-100 9.95169e-101 3.8813e-101 4.81899e-102 5.99289e-103 3.09284e-104 2.01795e-106