/*--------------------------------*- C++ -*----------------------------------*\
| =========                 |                                                 |
| \\      /  F ield         | OpenFOAM: The Open Source CFD Toolbox           |
|  \\    /   O peration     | Version:  2512                                  |
|   \\  /    A nd           | Website:  www.openfoam.com                      |
|    \\/     M anipulation  |                                                 |
\*---------------------------------------------------------------------------*/
FoamFile
{
    version     2.0;
    format      ascii;
    arch        "LSB;label=32;scalar=64";
    class       volScalarField;
    location    "2";
    object      B;
}
// * * * * * * * * * * * * * * * * * * * * * * * * * * * * * * * * * * * * * //

dimensions      [0 -3 0 0 1 0 0];

internalField nonuniform List<scalar> 79633(-7.04444e-113 -7.04229e-113 -1.26905e-107 7.91246e-100 -1.1768e-92 7.36948e-86 -2.70971e-79 7.19316e-73 -1.56348e-66 3.00148e-60 -5.3186e-54 8.89885e-48 -1.41093e-41 1.74591e-35 1.75947e-25 3.05375e-23 -3.26105e-15 5999.27 6000.0 6000.0 6000.0 6000.0 6000.0 6000.0 6000.0 6000.0 6000.0 6000.0 6000.0 6000.0 6000.0 6000.0 6000.0 6000.0 0.722685 3.72367e-08 4.29472e-18 8.72967e-24 1.05418e-28 1.69988e-31 4.35158e-32 1.39573e-34 -5.75299e-37 -1.08437e-38 -1.94365e-42 -8.12354e-48 -4.08406e-53 -2.01963e-58 -3.48784e-61 1.54348e-48 4.54522e-41 2.60171e-35 9.47313e-30 5.24944e-26 3.0481e-24 4.45574e-30 5999.32 6000.0 6000.0 6000.0 6000.0 6000.0 6000.0 6000.0 6000.0 6000.0 6000.0 6000.0 6000.0 6000.0 6000.0 6000.0 6000.0 0.662568 5.56004e-08 4.18728e-18 2.66692e-27 1.81421e-27 4.07132e-24 1.60171e-22 -1.59397e-14 5998.97 6000.0 6000.0 6000.0 6000.0 6000.0 6000.0 6000.0 6000.0 6000.0 6000.0 6000.0 6000.0 6000.0 6000.0 6000.0 6000.0 1.09836 1.33659e-07 2.61102e-15 1.12665e-16 2.91892e-18 -6.87932e-22 -1.61538e-20 -1.03271e-20 -3.80169e-21 -7.86143e-22 -9.70563e-23 -1.12765e-23 -9.94817e-25 -5.63104e-26 -1.87079e-27 -4.00396e-29 -1.07253e-30 -1.96704e-32 2.431e-34 9.21804e-34 1.21256e-33 3.96436e-34 3.99162e-36 1.78803e-38 2.61157e-40 1.34038e-42 1.42813e-44 1.15959e-46 1.06305e-48 1.31646e-50 9.43956e-52 7.66231e-53 4.04787e-54 1.19475e-55 1.72441e-57 1.12566e-59 3.87551e-61 9.78684e-62 1.79352e-62 1.797e-63 9.36412e-65 2.60044e-66 3.49855e-68 1.78144e-70 3.44934e-73 4.91585e-76 4.2315e-79 9.90586e-82 5.88171e-82 5.97345e-82 4.76598e-82 2.79089e-82 1.12491e-82 2.77791e-83 3.82068e-84 3.36085e-85 1.93993e-86 4.80372e-88 4.56337e-90 6.08453e-93 4.38032e-97 1.18311e-101 -2.56121e-105 -4.81512e-106 -5.32215e-108 -1.77291e-111 -3.56405e-116 -3.62914e-121 -4.85078e-126 -6.10891e-131 -9.42704e-136 -7.6736e-141 4.00611e-143 6.70024e-145 2.19621e-148 4.07347e-153 1.05703e-154 1.78934e-156 1.88301e-160 1.01898e-165 1.67195e-169 1.05675e-172 1.07401e-177 9.94957e-183 8.00105e-188 1.21659e-189 1.53437e-194 1.07725e-196 5.97588e-198 5.50916e-201 7.32612e-206 6.77917e-211 7.68041e-216 4.56524e-221 3.67277e-226 3.79989e-231 2.93756e-234 1.66226e-236 1.45742e-238 7.423e-240 -6.7855e-241 -1.56931e-241 -9.25069e-244 -8.53225e-248 -1.64387e-250 -4.2708e-255 -6.26557e-257 -1.73961e-255 -2.10243e-257 -5.92506e-261 -1.39752e-262 -9.46756e-268 -1.26404e-270 -3.92951e-272 -1.20374e-275 -1.00954e-279 -1.18604e-283 -5.44584e-287 -6.34284e-291 -6.75145e-296 -1.15233e-299 0.0 0.0 0.0 0.0 0.0 0.0 0.0 0.0 0.0 0.0 0.0 0.0 0.0 0.0 0.0 0.0 0.0 0.0 0.0 0.0 0.0 0.0 0.0 0.0 0.0 0.0 0.0 0.0 0.0 0.0 0.0 0.0 0.0 0.0 0.0 0.0 0.0 0.0 0.0 0.0 0.0 0.0 0.0 0.0 0.0 0.0 0.0 0.0 0.0 0.0 0.0 0.0 0.0 0.0 0.0 0.0 0.0 0.0 0.0 0.0 0.0 0.0 0.0 0.0 0.0 0.0 0.0 0.0 0.0 0.0 0.0 0.0 0.0 0.0 0.0 0.0 0.0 0.0 0.0 0.0 0.0 0.0 0.0 0.0 0.0 0.0 0.0 0.0 0.0 0.0 0.0 0.0 0.0 0.0 0.0 0.0 0.0 0.0 0.0 0.0 0.0 0.0 0.0 0.0 0.0 0.0 0.0 0.0 0.0 0.0 0.0 0.0 0.0 0.0 0.0 0.0 0.0 0.0 0.0 0.0 0.0 0.0 0.0 0.0 0.0 0.0 0.0 0.0 0.0 0.0 0.0 0.0 0.0 0.0 0.0 0.0 0.0 0.0 0.0 0.0 0.0 0.0 0.0 0.0 0.0 0.0 0.0 0.0 0.0 0.0 0.0 0.0 0.0 0.0 0.0 0.0 0.0 0.0 0.0 0.0 0.0 0.0 0.0 0.0 0.0 0.0 0.0 0.0 0.0 0.0 0.0 0.0 0.0 0.0 0.0 0.0 0.0 0.0 0.0 0.0 0.0 0.0 0.0 0.0 0.0 0.0 0.0 0.0 0.0 0.0 0.0 0.0 0.0 0.0 0.0 0.0 0.0 0.0 0.0 0.0 0.0 0.0 0.0 0.0 0.0 0.0 0.0 0.0 0.0 0.0 0.0 0.0 0.0 0.0 0.0 0.0 0.0 0.0 0.0 0.0 0.0 0.0 0.0 0.0 0.0 0.0 0.0 0.0 0.0 0.0 0.0 0.0 0.0 0.0 0.0 0.0 0.0 0.0 0.0 0.0 0.0 0.0 0.0 0.0 0.0 0.0 0.0 0.0 0.0 0.0 0.0 0.0 0.0 0.0 0.0 0.0 0.0 0.0 0.0 0.0 0.0 0.0 0.0 0.0 0.0 0.0 0.0 0.0 0.0 0.0 0.0 0.0 0.0 0.0 0.0 0.0 0.0 0.0 0.0 0.0 0.0 0.0 0.0 0.0 0.0 0.0 0.0 0.0 0.0 0.0 0.0 0.0 0.0 0.0 0.0 0.0 0.0 0.0 0.0 0.0 0.0 0.0 0.0 0.0 0.0 0.0 0.0 0.0 0.0 0.0 0.0 0.0 0.0 0.0 0.0 0.0 0.0 0.0 0.0 0.0 0.0 0.0 0.0 0.0 0.0 0.0 0.0 0.0 0.0 0.0 0.0 0.0 0.0 0.0 0.0 0.0 0.0 0.0 0.0 0.0 0.0 0.0 0.0 0.0 0.0 0.0 0.0 0.0 0.0 0.0 0.0 0.0 0.0 0.0 0.0 0.0 0.0 0.0 0.0 0.0 0.0 -7.04443e-113 -7.04322e-113 -4.75657e-108 2.153e-100 -2.49732e-93 1.29615e-86 -4.22851e-80 1.07096e-73 -2.38093e-67 4.96934e-61 -1.00273e-54 1.95436e-48 -3.55525e-42 3.27558e-36 1.52523e-26 5.34543e-24 -7.8303e-16 5999.35 6000.0 6000.0 6000.0 6000.0 6000.0 6000.0 6000.0 6000.0 6000.0 6000.0 6000.0 6000.0 6000.0 6000.0 6000.0 6000.0 0.644107 1.64983e-08 7.70377e-15 1.25462e-19 3.03287e-23 8.72374e-26 6.87952e-30 -1.49329e-30 -9.71847e-31 -3.17292e-32 -1.83585e-35 -1.60443e-40 -9.42452e-46 -1.21266e-50 -2.61324e-54 7.76875e-52 1.28179e-43 7.05591e-38 6.95098e-29 1.59274e-24 1.0629e-22 -7.91755e-15 5999.39 6000.0 6000.0 6000.0 6000.0 6000.0 6000.0 6000.0 6000.0 6000.0 6000.0 6000.0 6000.0 6000.0 6000.0 6000.0 6000.0 0.596855 2.34724e-08 3.87912e-18 2.35988e-27 4.16777e-28 5.01964e-25 1.57454e-23 1.23791e-18 5999.11 6000.0 6000.0 6000.0 6000.0 6000.0 6000.0 6000.0 6000.0 6000.0 6000.0 6000.0 6000.0 6000.0 6000.0 6000.0 6000.0 0.950492 5.1937e-08 1.31121e-10 6.54103e-13 -1.86436e-16 -8.02183e-16 -7.70502e-16 -5.92736e-16 -3.30717e-16 -1.28049e-16 -3.34608e-17 -5.79973e-18 -6.54867e-19 -4.65668e-20 -1.97723e-21 -5.10257e-23 -1.70365e-24 -4.05923e-26 -5.18101e-28 -4.8183e-30 3.68365e-31 5.90382e-31 5.46109e-31 6.24674e-32 1.53456e-33 9.59279e-36 1.0877e-37 1.04816e-39 9.80737e-42 7.99127e-44 4.03637e-45 4.86155e-46 4.04203e-47 1.75827e-48 3.53272e-50 2.83654e-52 2.98271e-54 7.94839e-55 2.23629e-55 3.448e-56 2.59306e-57 1.00361e-58 1.89657e-60 1.34396e-62 3.35305e-65 5.94642e-68 6.40176e-71 8.49016e-74 4.86073e-75 5.82509e-75 6.39642e-75 5.70882e-75 3.82335e-75 1.67385e-75 4.20013e-76 6.13091e-77 6.62754e-78 5.11555e-79 1.82094e-80 7.79225e-83 1.72198e-86 5.69412e-91 -8.1229e-94 -2.19857e-94 -5.84252e-96 -8.00083e-99 -4.59741e-103 -8.52474e-108 -2.24565e-112 -6.48921e-117 -1.13517e-120 -1.27371e-124 -1.45833e-123 -7.25518e-125 -7.57512e-127 -1.4717e-130 -2.74565e-135 -6.57898e-140 -9.78621e-145 -3.45106e-149 -6.88321e-154 -3.22965e-155 -7.75899e-158 -8.09473e-162 -1.79354e-166 -5.0808e-171 -3.73479e-175 -6.90902e-178 -2.23809e-181 -6.96698e-186 -2.45896e-190 -7.60767e-195 -2.77316e-199 -5.20581e-204 -1.30696e-208 -4.06051e-213 -1.90874e-215 8.86263e-216 2.14788e-216 4.45688e-218 4.35951e-221 6.88563e-222 1.67679e-223 5.36616e-228 5.06898e-229 2.29144e-231 6.78886e-233 1.96531e-235 3.85945e-239 6.74445e-241 2.50625e-243 3.74309e-247 9.20187e-252 2.12514e-256 6.05096e-261 9.16944e-266 1.90395e-270 4.98457e-275 4.85682e-279 3.14906e-281 2.16421e-284 8.87742e-289 1.6841e-293 4.06495e-298 0.0 0.0 0.0 0.0 0.0 0.0 0.0 0.0 0.0 0.0 0.0 0.0 0.0 0.0 0.0 0.0 0.0 0.0 0.0 0.0 0.0 0.0 0.0 0.0 0.0 0.0 0.0 0.0 0.0 0.0 0.0 0.0 0.0 0.0 0.0 0.0 0.0 0.0 0.0 0.0 0.0 0.0 0.0 0.0 0.0 0.0 0.0 0.0 0.0 0.0 0.0 0.0 0.0 0.0 0.0 0.0 0.0 0.0 0.0 0.0 0.0 0.0 0.0 0.0 0.0 0.0 0.0 0.0 0.0 0.0 0.0 0.0 0.0 0.0 0.0 0.0 0.0 0.0 0.0 0.0 0.0 0.0 0.0 0.0 0.0 0.0 0.0 0.0 0.0 0.0 0.0 0.0 0.0 0.0 0.0 0.0 0.0 0.0 0.0 0.0 0.0 0.0 0.0 0.0 0.0 0.0 0.0 0.0 0.0 0.0 0.0 0.0 0.0 0.0 0.0 0.0 0.0 0.0 0.0 0.0 0.0 0.0 0.0 0.0 0.0 0.0 0.0 0.0 0.0 0.0 0.0 0.0 0.0 0.0 0.0 0.0 0.0 0.0 0.0 0.0 0.0 0.0 0.0 0.0 0.0 0.0 0.0 0.0 0.0 0.0 0.0 0.0 0.0 0.0 0.0 0.0 0.0 0.0 0.0 0.0 0.0 0.0 0.0 0.0 0.0 0.0 0.0 0.0 0.0 0.0 0.0 0.0 0.0 0.0 0.0 0.0 0.0 0.0 0.0 0.0 0.0 0.0 0.0 0.0 0.0 0.0 0.0 0.0 0.0 0.0 0.0 0.0 0.0 0.0 0.0 0.0 0.0 0.0 0.0 0.0 0.0 0.0 0.0 0.0 0.0 0.0 0.0 0.0 0.0 0.0 0.0 0.0 0.0 0.0 0.0 0.0 0.0 0.0 0.0 0.0 0.0 0.0 0.0 0.0 0.0 0.0 0.0 0.0 0.0 0.0 0.0 0.0 0.0 0.0 0.0 0.0 0.0 0.0 0.0 0.0 0.0 0.0 0.0 0.0 0.0 0.0 0.0 0.0 0.0 0.0 0.0 0.0 0.0 0.0 0.0 0.0 0.0 0.0 0.0 0.0 0.0 0.0 0.0 0.0 0.0 0.0 0.0 0.0 0.0 0.0 0.0 0.0 0.0 0.0 0.0 0.0 0.0 0.0 0.0 0.0 0.0 0.0 0.0 0.0 0.0 0.0 0.0 0.0 0.0 0.0 0.0 0.0 0.0 0.0 0.0 0.0 0.0 0.0 0.0 0.0 0.0 0.0 0.0 0.0 0.0 0.0 0.0 0.0 0.0 0.0 0.0 0.0 0.0 0.0 0.0 0.0 0.0 0.0 0.0 0.0 0.0 0.0 0.0 0.0 0.0 0.0 0.0 0.0 0.0 0.0 0.0 0.0 0.0 0.0 0.0 0.0 0.0 0.0 0.0 0.0 0.0 0.0 0.0 0.0 0.0 0.0 0.0 0.0 0.0 0.0 0.0 0.0 0.0 0.0 0.0 0.0 0.0 0.0 -7.04413e-113 -7.04362e-113 -1.15307e-108 3.05783e-101 -2.29496e-94 8.55392e-88 -2.26848e-81 5.34276e-75 -1.25957e-68 3.13347e-62 -8.2315e-56 2.1881e-49 -5.47563e-43 2.78687e-37 2.9176e-28 6.43363e-24 -1.69279e-15 5999.23 6000.0 6000.0 6000.0 6000.0 6000.0 6000.0 6000.0 6000.0 6000.0 6000.0 6000.0 6000.0 6000.0 6000.0 6000.0 6000.0 0.758387 2.48343e-08 2.4676e-12 9.27372e-16 3.22689e-19 1.19028e-22 -1.31139e-25 -2.83846e-25 -5.20046e-26 -5.56342e-28 -1.98828e-31 -4.12877e-36 -4.56006e-41 -7.43432e-46 -1.8457e-50 -5.7992e-52 1.57304e-47 -6.17098e-42 3.64392e-31 1.20413e-27 4.01552e-27 -1.54591e-22 5999.29 6000.0 6000.0 6000.0 6000.0 6000.0 6000.0 6000.0 6000.0 6000.0 6000.0 6000.0 6000.0 6000.0 6000.0 6000.0 6000.0 0.704605 3.38599e-08 3.78131e-18 2.69514e-27 3.36987e-26 1.23831e-23 1.90702e-22 -2.19301e-14 5998.95 6000.0 6000.0 6000.0 6000.0 6000.0 6000.0 6000.0 6000.0 6000.0 6000.0 6000.0 6000.0 6000.0 6000.0 6000.0 6000.0 1.09915 1.11017e-05 2.17697e-08 3.62004e-11 -2.04265e-13 -2.49276e-13 -2.42086e-13 -2.11252e-13 -1.56479e-13 -9.49045e-14 -4.55916e-14 -1.67872e-14 -4.65885e-15 -9.45318e-16 -1.32412e-16 -1.18332e-17 -6.25452e-19 -1.86207e-20 -3.03785e-22 -3.37996e-24 -4.30428e-26 -2.15837e-28 6.70516e-29 8.13582e-29 5.64898e-29 6.40385e-30 1.96374e-31 2.26613e-33 2.13978e-35 1.73852e-37 3.64239e-39 5.74e-40 7.69081e-41 5.24245e-42 1.5405e-43 1.67845e-45 8.58598e-48 1.093e-48 4.4568e-49 1.12722e-49 1.32244e-50 7.58227e-52 2.09348e-53 2.10804e-55 6.96208e-58 1.60065e-60 2.17879e-63 2.96735e-66 2.14093e-68 7.64289e-69 9.75665e-69 1.07267e-68 9.9535e-69 7.21804e-69 3.37226e-69 8.67925e-70 1.47075e-70 9.60225e-72 6.32092e-74 2.90531e-77 -2.59203e-80 -1.0234e-80 -6.16687e-82 -3.06157e-84 -7.90917e-88 -3.31299e-92 -8.51322e-96 -3.00483e-99 1.60176e-99 9.3948e-100 1.59213e-100 4.40631e-102 1.29282e-104 3.00094e-108 1.88003e-112 6.41177e-117 3.05189e-121 1.70121e-125 1.46309e-126 1.23565e-129 1.92158e-133 1.50981e-137 5.80783e-142 4.1135e-146 7.96724e-150 1.25536e-153 7.66508e-158 5.2954e-162 4.07298e-166 1.5527e-170 7.6969e-175 3.58443e-179 2.04675e-183 6.17474e-188 2.66702e-192 8.8422e-195 1.50276e-195 1.49121e-196 3.03678e-198 7.92698e-202 2.23419e-202 5.50739e-203 1.09702e-204 3.24409e-207 5.00418e-211 1.93126e-215 9.32345e-220 2.42363e-224 8.715e-229 3.08802e-233 1.3932e-237 3.42338e-242 1.17256e-246 3.97887e-251 1.72902e-255 1.09381e-259 5.41697e-262 1.42354e-264 2.44562e-265 1.67346e-267 1.82701e-270 2.38895e-274 9.0645e-279 4.54387e-283 2.78995e-287 9.03637e-292 3.97117e-296 1.69055e-300 0.0 0.0 0.0 0.0 0.0 0.0 0.0 0.0 0.0 0.0 0.0 0.0 0.0 0.0 0.0 0.0 0.0 0.0 0.0 0.0 0.0 0.0 0.0 0.0 0.0 0.0 0.0 0.0 0.0 0.0 0.0 0.0 0.0 0.0 0.0 0.0 0.0 0.0 0.0 0.0 0.0 0.0 0.0 0.0 0.0 0.0 0.0 0.0 0.0 0.0 0.0 0.0 0.0 0.0 0.0 0.0 0.0 0.0 0.0 0.0 0.0 0.0 0.0 0.0 0.0 0.0 0.0 0.0 0.0 0.0 0.0 0.0 0.0 0.0 0.0 0.0 0.0 0.0 0.0 0.0 0.0 0.0 0.0 0.0 0.0 0.0 0.0 0.0 0.0 0.0 0.0 0.0 0.0 0.0 0.0 0.0 0.0 0.0 0.0 0.0 0.0 0.0 0.0 0.0 0.0 0.0 0.0 0.0 0.0 0.0 0.0 0.0 0.0 0.0 0.0 0.0 0.0 0.0 0.0 0.0 0.0 0.0 0.0 0.0 0.0 0.0 0.0 0.0 0.0 0.0 0.0 0.0 0.0 0.0 0.0 0.0 0.0 0.0 0.0 0.0 0.0 0.0 0.0 0.0 0.0 0.0 0.0 0.0 0.0 0.0 0.0 0.0 0.0 0.0 0.0 0.0 0.0 0.0 0.0 0.0 0.0 0.0 0.0 0.0 0.0 0.0 0.0 0.0 0.0 0.0 0.0 0.0 0.0 0.0 0.0 0.0 0.0 0.0 0.0 0.0 0.0 0.0 0.0 0.0 0.0 0.0 0.0 0.0 0.0 0.0 0.0 0.0 0.0 0.0 0.0 0.0 0.0 0.0 0.0 0.0 0.0 0.0 0.0 0.0 0.0 0.0 0.0 0.0 0.0 0.0 0.0 0.0 0.0 0.0 0.0 0.0 0.0 0.0 0.0 0.0 0.0 0.0 0.0 0.0 0.0 0.0 0.0 0.0 0.0 0.0 0.0 0.0 0.0 0.0 0.0 0.0 0.0 0.0 0.0 0.0 0.0 0.0 0.0 0.0 0.0 0.0 0.0 0.0 0.0 0.0 0.0 0.0 0.0 0.0 0.0 0.0 0.0 0.0 0.0 0.0 0.0 0.0 0.0 0.0 0.0 0.0 0.0 0.0 0.0 0.0 0.0 0.0 0.0 0.0 0.0 0.0 0.0 0.0 0.0 0.0 0.0 0.0 0.0 0.0 0.0 0.0 0.0 0.0 0.0 0.0 0.0 0.0 0.0 0.0 0.0 0.0 0.0 0.0 0.0 0.0 0.0 0.0 0.0 0.0 0.0 0.0 0.0 0.0 0.0 0.0 0.0 0.0 0.0 0.0 0.0 0.0 0.0 0.0 0.0 0.0 0.0 0.0 0.0 0.0 0.0 0.0 0.0 0.0 0.0 0.0 0.0 0.0 0.0 0.0 0.0 0.0 0.0 0.0 0.0 0.0 0.0 0.0 0.0 0.0 0.0 0.0 0.0 0.0 0.0 0.0 0.0 0.0 0.0 0.0 -7.03634e-113 -7.03719e-113 -2.42113e-109 3.37414e-102 -1.44499e-95 3.47276e-89 -7.03381e-83 1.54505e-76 -4.19058e-70 1.44307e-63 -5.87452e-57 2.50469e-50 -1.00705e-43 6.76747e-38 1.32924e-30 4.45646e-24 -3.34871e-23 5999.14 6000.0 6000.0 6000.0 6000.0 6000.0 6000.0 6000.0 6000.0 6000.0 6000.0 6000.0 6000.0 6000.0 6000.0 6000.0 6000.0 0.857321 3.89114e-06 8.08031e-10 1.65568e-13 4.25067e-17 2.39625e-21 -1.36606e-21 -4.39228e-22 -1.41361e-23 -3.29913e-26 -4.57953e-30 -1.84134e-34 -4.04113e-39 -1.26965e-43 -5.79185e-48 -4.0803e-50 1.25496e-49 -1.1789e-42 2.69196e-35 1.07706e-31 3.34973e-31 -4.43378e-31 5999.19 6000.0 6000.0 6000.0 6000.0 6000.0 6000.0 6000.0 6000.0 6000.0 6000.0 6000.0 6000.0 6000.0 6000.0 6000.0 6000.0 0.797991 4.14608e-08 1.21816e-17 5.67985e-25 4.30407e-24 5.18545e-29 -4.45919e-30 -5.94213e-22 5998.81 6000.0 6000.0 6000.0 6000.0 6000.0 6000.0 6000.0 6000.0 6000.0 6000.0 6000.0 6000.0 6000.0 6000.0 6000.0 6000.0 1.2248 0.000252521 1.4189e-07 1.28691e-10 -2.84564e-12 -2.93709e-12 -2.89404e-12 -2.73672e-12 -2.41871e-12 -1.95029e-12 -1.39862e-12 -8.60648e-13 -4.45773e-13 -1.91082e-13 -6.47463e-14 -1.62137e-14 -2.7606e-15 -3.04018e-16 -2.10064e-17 -8.26075e-19 -1.51111e-20 -1.06948e-22 -4.47714e-25 -5.96389e-28 4.09776e-27 4.12221e-27 2.1849e-27 3.01051e-28 1.7215e-29 1.95514e-31 1.45519e-33 2.33515e-34 4.57119e-35 4.99228e-36 2.29916e-37 3.62922e-39 1.95657e-41 4.14133e-43 2.23179e-43 9.37574e-44 1.8427e-44 1.76437e-45 7.7324e-47 1.14142e-48 5.13519e-51 1.65506e-53 2.8938e-56 4.25844e-59 2.54774e-61 5.10355e-63 2.84985e-63 2.63127e-63 2.20773e-63 1.42583e-63 7.23614e-64 2.32997e-64 1.79621e-65 2.09473e-67 2.24746e-70 -1.47041e-71 -6.4474e-72 -6.17762e-73 -8.23941e-75 -1.16798e-77 -1.21515e-81 -3.31563e-86 2.45834e-86 1.45473e-86 3.08895e-87 1.59859e-88 1.37947e-90 1.39558e-93 1.36501e-97 3.30413e-102 -2.83701e-102 -9.44996e-103 -5.49808e-104 -3.86379e-106 -2.33061e-109 -1.33937e-113 -7.57095e-118 -5.43978e-122 -2.12643e-126 -1.15842e-130 -6.25712e-135 -4.32847e-139 -1.64055e-143 -8.72184e-148 -5.96349e-152 -2.24224e-156 -1.18625e-160 -6.27508e-165 -4.28014e-169 -1.47792e-173 4.66414e-175 1.5555e-175 4.69189e-177 -7.4959e-178 -2.39073e-178 -1.00316e-179 -3.34684e-182 -7.13677e-186 -3.50777e-190 -2.21572e-194 -7.69697e-199 -3.76451e-203 -2.37612e-207 -8.27179e-212 -4.0613e-216 -2.00465e-220 -1.27378e-224 -5.66802e-229 -2.59288e-233 -5.03919e-237 -8.47059e-239 -1.01688e-240 -5.46411e-243 -1.30665e-245 -6.62565e-249 -6.47294e-253 -5.73331e-257 -6.16375e-261 -3.51039e-265 -2.74378e-269 -2.71764e-273 -1.46413e-277 -1.09975e-281 -8.18763e-286 -7.79249e-290 -4.04874e-294 -2.93723e-298 0.0 0.0 0.0 0.0 0.0 0.0 0.0 0.0 0.0 0.0 0.0 0.0 0.0 0.0 0.0 0.0 0.0 0.0 0.0 0.0 0.0 0.0 0.0 0.0 0.0 0.0 0.0 0.0 0.0 0.0 0.0 0.0 0.0 0.0 0.0 0.0 0.0 0.0 0.0 0.0 0.0 0.0 0.0 0.0 0.0 0.0 0.0 0.0 0.0 0.0 0.0 0.0 0.0 0.0 0.0 0.0 0.0 0.0 0.0 0.0 0.0 0.0 0.0 0.0 0.0 0.0 0.0 0.0 0.0 0.0 0.0 0.0 0.0 0.0 0.0 0.0 0.0 0.0 0.0 0.0 0.0 0.0 0.0 0.0 0.0 0.0 0.0 0.0 0.0 0.0 0.0 0.0 0.0 0.0 0.0 0.0 0.0 0.0 0.0 0.0 0.0 0.0 0.0 0.0 0.0 0.0 0.0 0.0 0.0 0.0 0.0 0.0 0.0 0.0 0.0 0.0 0.0 0.0 0.0 0.0 0.0 0.0 0.0 0.0 0.0 0.0 0.0 0.0 0.0 0.0 0.0 0.0 0.0 0.0 0.0 0.0 0.0 0.0 0.0 0.0 0.0 0.0 0.0 0.0 0.0 0.0 0.0 0.0 0.0 0.0 0.0 0.0 0.0 0.0 0.0 0.0 0.0 0.0 0.0 0.0 0.0 0.0 0.0 0.0 0.0 0.0 0.0 0.0 0.0 0.0 0.0 0.0 0.0 0.0 0.0 0.0 0.0 0.0 0.0 0.0 0.0 0.0 0.0 0.0 0.0 0.0 0.0 0.0 0.0 0.0 0.0 0.0 0.0 0.0 0.0 0.0 0.0 0.0 0.0 0.0 0.0 0.0 0.0 0.0 0.0 0.0 0.0 0.0 0.0 0.0 0.0 0.0 0.0 0.0 0.0 0.0 0.0 0.0 0.0 0.0 0.0 0.0 0.0 0.0 0.0 0.0 0.0 0.0 0.0 0.0 0.0 0.0 0.0 0.0 0.0 0.0 0.0 0.0 0.0 0.0 0.0 0.0 0.0 0.0 0.0 0.0 0.0 0.0 0.0 0.0 0.0 0.0 0.0 0.0 0.0 0.0 0.0 0.0 0.0 0.0 0.0 0.0 0.0 0.0 0.0 0.0 0.0 0.0 0.0 0.0 0.0 0.0 0.0 0.0 0.0 0.0 0.0 0.0 0.0 0.0 0.0 0.0 0.0 0.0 0.0 0.0 0.0 0.0 0.0 0.0 0.0 0.0 0.0 0.0 0.0 0.0 0.0 0.0 0.0 0.0 0.0 0.0 0.0 0.0 0.0 0.0 0.0 0.0 0.0 0.0 0.0 0.0 0.0 0.0 0.0 0.0 0.0 0.0 0.0 0.0 0.0 0.0 0.0 0.0 0.0 0.0 0.0 0.0 0.0 0.0 0.0 0.0 0.0 0.0 0.0 0.0 0.0 0.0 0.0 0.0 0.0 0.0 0.0 0.0 0.0 0.0 0.0 0.0 0.0 0.0 0.0 -6.93902e-113 -6.95178e-113 -4.96571e-110 3.59492e-103 -8.34822e-97 1.22441e-90 -1.89896e-84 4.41814e-78 -1.73855e-71 1.00114e-64 -6.70281e-58 4.42422e-51 -2.62887e-44 5.89269e-38 -1.18414e-31 2.14438e-24 1.13865e-24 5999.05 6000.0 6000.0 6000.0 6000.0 6000.0 6000.0 6000.0 6000.0 6000.0 6000.0 6000.0 6000.0 6000.0 6000.0 6000.0 5999.66 0.94134 5.10911e-05 6.57839e-09 1.09143e-12 2.30133e-16 -2.64275e-18 -4.77054e-19 -1.44859e-20 -5.97495e-23 -2.89195e-26 -1.87554e-30 -1.65557e-34 -8.06079e-39 -5.4692e-43 -4.91323e-47 -1.08195e-50 2.94579e-52 -2.07441e-44 3.97462e-40 -1.97194e-34 1.03669e-34 3.94537e-17 5999.12 6000.0 6000.0 6000.0 6000.0 6000.0 6000.0 6000.0 6000.0 6000.0 6000.0 6000.0 6000.0 6000.0 6000.0 6000.0 5999.69 0.869619 1.21257e-07 2.58382e-12 7.93638e-17 3.49386e-21 9.96518e-26 1.22935e-30 4.24845e-25 5998.7 6000.0 6000.0 6000.0 6000.0 6000.0 6000.0 6000.0 6000.0 6000.0 6000.0 6000.0 6000.0 6000.0 6000.0 6000.0 5999.52 1.33032 0.000486436 1.80538e-07 1.35703e-10 -5.22138e-12 -5.19413e-12 -5.16158e-12 -5.09073e-12 -4.91006e-12 -4.54289e-12 -3.97554e-12 -3.28e-12 -2.49154e-12 -1.68055e-12 -9.84875e-13 -4.85978e-13 -1.89567e-13 -5.57346e-14 -1.18863e-14 -1.68123e-15 -1.33615e-16 -5.0561e-18 -9.7636e-20 -1.26318e-21 -8.9474e-24 7.56841e-26 9.09144e-26 7.88229e-26 4.14195e-26 5.80231e-27 3.2198e-28 4.89995e-29 1.12377e-29 1.79888e-30 1.364e-31 3.34039e-33 2.63652e-35 7.61554e-38 1.74743e-38 1.20886e-38 5.97563e-39 1.36631e-39 1.09449e-40 2.48041e-42 1.59036e-44 8.38637e-47 1.90218e-49 3.10084e-52 2.06516e-54 2.24054e-56 4.77726e-58 2.39663e-58 1.48441e-58 5.9175e-59 1.07223e-59 5.49843e-61 6.08005e-63 -2.19656e-64 -1.95315e-64 -1.09762e-64 -2.89274e-65 -2.60704e-66 -5.87278e-68 -2.55902e-70 -1.68002e-73 -4.17783e-78 9.44913e-78 6.40777e-78 1.86351e-78 1.54659e-79 2.46831e-81 5.36646e-84 1.26701e-87 9.0215e-92 8.25019e-96 4.15027e-100 2.94167e-104 2.68089e-108 1.26206e-112 -2.60779e-114 -1.64003e-114 -3.30998e-115 -1.32899e-116 -7.41507e-119 -4.49544e-122 -4.16586e-126 -2.10132e-130 -1.47727e-134 -1.32756e-138 -6.52382e-143 -4.48785e-147 -3.0724e-151 -3.63664e-154 -3.73599e-157 -4.04966e-160 -7.61756e-161 -8.45342e-163 -5.21288e-166 -2.56239e-170 -1.62305e-174 -5.65898e-179 -2.79831e-183 -3.58011e-187 -9.24996e-190 -8.20739e-193 -9.49078e-197 5.04956e-200 1.32614e-200 8.34865e-202 9.90508e-204 1.7989e-206 3.57939e-210 2.68933e-214 1.97495e-218 1.83951e-222 9.2976e-227 6.53944e-231 5.87293e-235 2.88075e-239 1.98145e-243 1.35432e-247 1.19579e-251 5.8483e-256 4.0968e-260 4.09311e-264 2.24216e-268 1.90989e-272 1.78494e-276 2.55477e-277 6.27077e-279 2.37211e-281 1.01865e-284 8.43268e-289 3.74745e-293 1.74496e-296 6.46147e-298 3.41145e-299 9.85917e-300 0.0 0.0 0.0 0.0 0.0 0.0 0.0 0.0 0.0 0.0 0.0 0.0 0.0 0.0 0.0 0.0 0.0 0.0 0.0 0.0 0.0 0.0 0.0 0.0 0.0 0.0 0.0 0.0 0.0 0.0 0.0 0.0 0.0 0.0 0.0 0.0 0.0 0.0 0.0 0.0 0.0 0.0 0.0 0.0 0.0 0.0 0.0 0.0 0.0 0.0 0.0 0.0 0.0 0.0 0.0 0.0 0.0 0.0 0.0 0.0 0.0 0.0 0.0 0.0 0.0 0.0 0.0 0.0 0.0 0.0 0.0 0.0 0.0 0.0 0.0 0.0 0.0 0.0 0.0 0.0 0.0 0.0 0.0 0.0 0.0 0.0 0.0 0.0 0.0 0.0 0.0 0.0 0.0 0.0 0.0 0.0 0.0 0.0 0.0 0.0 0.0 0.0 0.0 0.0 0.0 0.0 0.0 0.0 0.0 0.0 0.0 0.0 0.0 0.0 0.0 0.0 0.0 0.0 0.0 0.0 0.0 0.0 0.0 0.0 0.0 0.0 0.0 0.0 0.0 0.0 0.0 0.0 0.0 0.0 0.0 0.0 0.0 0.0 0.0 0.0 0.0 0.0 0.0 0.0 0.0 0.0 0.0 0.0 0.0 0.0 0.0 0.0 0.0 0.0 0.0 0.0 0.0 0.0 0.0 0.0 0.0 0.0 0.0 0.0 0.0 0.0 0.0 0.0 0.0 0.0 0.0 0.0 0.0 0.0 0.0 0.0 0.0 0.0 0.0 0.0 0.0 0.0 0.0 0.0 0.0 0.0 0.0 0.0 0.0 0.0 0.0 0.0 0.0 0.0 0.0 0.0 0.0 0.0 0.0 0.0 0.0 0.0 0.0 0.0 0.0 0.0 0.0 0.0 0.0 0.0 0.0 0.0 0.0 0.0 0.0 0.0 0.0 0.0 0.0 0.0 0.0 0.0 0.0 0.0 0.0 0.0 0.0 0.0 0.0 0.0 0.0 0.0 0.0 0.0 0.0 0.0 0.0 0.0 0.0 0.0 0.0 0.0 0.0 0.0 0.0 0.0 0.0 0.0 0.0 0.0 0.0 0.0 0.0 0.0 0.0 0.0 0.0 0.0 0.0 0.0 0.0 0.0 0.0 0.0 0.0 0.0 0.0 0.0 0.0 0.0 0.0 0.0 0.0 0.0 0.0 0.0 0.0 0.0 0.0 0.0 0.0 0.0 0.0 0.0 0.0 0.0 0.0 0.0 0.0 0.0 0.0 0.0 0.0 0.0 0.0 0.0 0.0 0.0 0.0 0.0 0.0 0.0 0.0 0.0 0.0 0.0 0.0 0.0 0.0 0.0 0.0 0.0 0.0 0.0 0.0 0.0 0.0 0.0 0.0 0.0 0.0 0.0 0.0 0.0 0.0 0.0 0.0 0.0 0.0 0.0 0.0 0.0 0.0 0.0 0.0 0.0 0.0 0.0 0.0 0.0 0.0 0.0 0.0 0.0 -6.33423e-113 -6.40957e-113 -1.038e-110 4.10863e-104 -5.29668e-98 4.98941e-92 -7.51354e-86 2.71627e-79 -1.82706e-72 1.576e-65 -1.41047e-58 1.17616e-51 -8.61391e-45 3.97875e-38 -9.60909e-32 7.61358e-25 6.50382e-25 0.343388 5998.98 6000.0 6000.0 6000.0 6000.0 6000.0 6000.0 6000.0 6000.0 6000.0 6000.0 6000.0 6000.0 6000.0 5999.73 1.01309 0.000123405 1.36646e-08 2.78964e-12 -3.51236e-14 -9.40503e-15 -6.57079e-16 -1.00276e-17 -2.68472e-20 -9.6136e-24 -7.16821e-28 -5.96564e-32 -2.7814e-36 3.18294e-36 1.79421e-36 2.806e-37 6.5724e-39 1.33768e-41 -6.23056e-46 8.63127e-45 -7.82622e-35 -3.8196e-35 -4.20072e-16 0.315329 5999.05 6000.0 6000.0 6000.0 6000.0 6000.0 6000.0 6000.0 6000.0 6000.0 6000.0 6000.0 6000.0 6000.0 5999.75 0.944373 0.00792905 3.74364e-06 1.0942e-10 4.9957e-15 2.73355e-19 6.62773e-24 1.01048e-28 2.7475e-23 0.477056 5998.6 6000.0 6000.0 6000.0 6000.0 6000.0 6000.0 6000.0 6000.0 6000.0 6000.0 6000.0 6000.0 6000.0 5999.61 1.42028 0.000381668 1.7961e-07 6.83799e-11 -6.35928e-13 4.05916e-13 9.70975e-13 6.8708e-13 -1.46385e-13 -1.36283e-12 -2.53426e-12 -3.24582e-12 -3.36487e-12 -3.15208e-12 -2.61182e-12 -1.9387e-12 -1.30431e-12 -7.97408e-13 -4.29516e-13 -1.90449e-13 -6.47912e-14 -1.52936e-14 -2.20096e-15 -1.98731e-16 -1.19317e-17 -3.81813e-19 -3.78622e-21 -1.01412e-23 6.41086e-25 7.01639e-25 6.77041e-25 5.11736e-25 2.90566e-25 1.31193e-25 4.77919e-26 1.09321e-26 9.39588e-28 1.73529e-29 4.61897e-32 3.56951e-35 1.39702e-35 1.02226e-35 5.87786e-36 2.09842e-36 3.36861e-37 1.75201e-38 2.29869e-40 6.44316e-43 1.24186e-45 9.57922e-48 1.24486e-49 8.97158e-52 4.37068e-54 2.47583e-55 4.88144e-56 6.43013e-57 -2.34272e-58 -3.75948e-58 -1.78255e-58 -5.12253e-59 -1.98492e-59 -6.01194e-60 -7.97812e-61 -3.02227e-62 -2.37587e-64 -2.97998e-67 -4.99786e-71 1.08446e-72 8.20564e-73 2.93092e-73 3.20011e-74 7.22729e-76 2.43607e-78 9.81233e-82 7.97676e-86 8.29904e-90 4.2353e-94 -3.0903e-95 -1.84603e-95 -3.67239e-96 -1.5708e-97 -1.02229e-99 -8.12744e-103 -5.22636e-107 -4.14794e-111 -3.29241e-115 -3.36667e-119 -1.89333e-123 -1.49672e-127 -1.50809e-131 9.06431e-134 6.0824e-134 1.52028e-134 8.81676e-136 8.16809e-138 9.39513e-141 1.38274e-144 7.67675e-149 6.03828e-153 4.77395e-157 4.87797e-161 2.74432e-165 2.1803e-169 1.72596e-173 1.75588e-177 -6.94044e-180 -5.04614e-180 -1.56297e-180 -1.31191e-181 -2.04222e-183 -4.45402e-186 -1.24342e-189 -7.10507e-194 -5.70701e-198 -4.58253e-202 -4.74774e-206 -2.71245e-210 -2.18497e-214 -2.27239e-218 -1.30299e-222 -1.05285e-226 -8.52594e-231 -9.22745e-235 -8.59861e-239 -1.87434e-242 -5.04068e-246 -6.26365e-250 -9.87784e-254 -1.42107e-257 -2.46048e-261 -2.23985e-265 -2.74417e-269 -3.22053e-273 -1.27791e-274 -2.34183e-275 -5.07706e-277 -8.67091e-278 -1.17528e-279 -6.37748e-281 -1.69454e-282 -7.92647e-285 -3.69151e-288 -2.92431e-292 -2.28741e-296 -2.28525e-300 0.0 0.0 0.0 0.0 0.0 0.0 0.0 0.0 0.0 0.0 0.0 0.0 0.0 0.0 0.0 0.0 0.0 0.0 0.0 0.0 0.0 0.0 0.0 0.0 0.0 0.0 0.0 0.0 0.0 0.0 0.0 0.0 0.0 0.0 0.0 0.0 0.0 0.0 0.0 0.0 0.0 0.0 0.0 0.0 0.0 0.0 0.0 0.0 0.0 0.0 0.0 0.0 0.0 0.0 0.0 0.0 0.0 0.0 0.0 0.0 0.0 0.0 0.0 0.0 0.0 0.0 0.0 0.0 0.0 0.0 0.0 0.0 0.0 0.0 0.0 0.0 0.0 0.0 0.0 0.0 0.0 0.0 0.0 0.0 0.0 0.0 0.0 0.0 0.0 0.0 0.0 0.0 0.0 0.0 0.0 0.0 0.0 0.0 0.0 0.0 0.0 0.0 0.0 0.0 0.0 0.0 0.0 0.0 0.0 0.0 0.0 0.0 0.0 0.0 0.0 0.0 0.0 0.0 0.0 0.0 0.0 0.0 0.0 0.0 0.0 0.0 0.0 0.0 0.0 0.0 0.0 0.0 0.0 0.0 0.0 0.0 0.0 0.0 0.0 0.0 0.0 0.0 0.0 0.0 0.0 0.0 0.0 0.0 0.0 0.0 0.0 0.0 0.0 0.0 0.0 0.0 0.0 0.0 0.0 0.0 0.0 0.0 0.0 0.0 0.0 0.0 0.0 0.0 0.0 0.0 0.0 0.0 0.0 0.0 0.0 0.0 0.0 0.0 0.0 0.0 0.0 0.0 0.0 0.0 0.0 0.0 0.0 0.0 0.0 0.0 0.0 0.0 0.0 0.0 0.0 0.0 0.0 0.0 0.0 0.0 0.0 0.0 0.0 0.0 0.0 0.0 0.0 0.0 0.0 0.0 0.0 0.0 0.0 0.0 0.0 0.0 0.0 0.0 0.0 0.0 0.0 0.0 0.0 0.0 0.0 0.0 0.0 0.0 0.0 0.0 0.0 0.0 0.0 0.0 0.0 0.0 0.0 0.0 0.0 0.0 0.0 0.0 0.0 0.0 0.0 0.0 0.0 0.0 0.0 0.0 0.0 0.0 0.0 0.0 0.0 0.0 0.0 0.0 0.0 0.0 0.0 0.0 0.0 0.0 0.0 0.0 0.0 0.0 0.0 0.0 0.0 0.0 0.0 0.0 0.0 0.0 0.0 0.0 0.0 0.0 0.0 0.0 0.0 0.0 0.0 0.0 0.0 0.0 0.0 0.0 0.0 0.0 0.0 0.0 0.0 0.0 0.0 0.0 0.0 0.0 0.0 0.0 0.0 0.0 0.0 0.0 0.0 0.0 0.0 0.0 0.0 0.0 0.0 0.0 0.0 0.0 0.0 0.0 0.0 0.0 0.0 0.0 0.0 0.0 0.0 0.0 0.0 0.0 0.0 0.0 0.0 0.0 0.0 0.0 0.0 0.0 0.0 0.0 -4.44407e-113 -4.64973e-113 -2.23581e-111 5.19588e-105 -4.12733e-99 3.38113e-93 -8.21756e-87 5.07173e-80 -4.56026e-73 4.52954e-66 -4.41131e-59 3.95873e-52 -3.1277e-45 2.06455e-38 -6.06225e-32 1.21478e-25 9.73432e-23 0.00010626 0.273167 5998.93 6000.0 6000.0 6000.0 6000.0 6000.0 6000.0 6000.0 6000.0 6000.0 6000.0 6000.0 5999.79 1.07115 0.000133249 3.47558e-08 5.30713e-12 -7.13602e-13 -4.28349e-13 -1.25787e-13 -1.29122e-14 -3.06238e-16 -1.17145e-18 -5.24642e-22 -3.33752e-26 -2.09344e-30 4.06313e-32 3.07695e-32 1.08066e-32 1.05139e-33 1.70523e-35 2.94593e-38 3.67182e-42 1.58587e-43 -8.39562e-36 1.67919e-32 -1.41549e-17 2.7821e-05 0.250043 5999.0 6000.0 6000.0 6000.0 6000.0 6000.0 6000.0 6000.0 6000.0 6000.0 6000.0 6000.0 5999.8 0.999067 8.56719e-05 1.19588e-08 2.66077e-12 -2.48566e-14 -3.63037e-15 -6.27403e-17 -1.01002e-19 -1.44689e-23 6.63366e-24 1.18097e-05 0.374349 5998.52 6000.0 6000.0 6000.0 6000.0 6000.0 6000.0 6000.0 6000.0 6000.0 6000.0 6000.0 5999.68 1.49278 0.000333356 1.48178e-07 1.25451e-10 1.14071e-11 1.25596e-11 1.31871e-11 1.27305e-11 1.14807e-11 9.4919e-12 7.05434e-12 4.55479e-12 2.36036e-12 7.12442e-13 -3.2946e-13 -8.48243e-13 -9.96405e-13 -9.83144e-13 -8.51093e-13 -6.06626e-13 -3.62531e-13 -1.84031e-13 -7.85578e-14 -2.80799e-14 -7.72629e-15 -1.43058e-15 -1.46525e-16 -5.96016e-18 -1.29312e-19 -5.53859e-21 -4.73332e-22 8.20846e-24 3.06329e-23 2.9442e-23 2.43829e-23 1.56155e-23 6.45362e-24 1.22525e-24 7.48774e-26 1.1059e-27 3.83982e-30 1.14358e-32 5.42509e-34 3.31318e-34 2.26154e-34 1.13123e-34 3.26867e-35 4.20413e-36 1.91386e-37 3.02812e-39 3.00076e-41 4.60069e-43 3.9507e-45 1.93402e-47 3.76564e-49 3.48029e-50 2.67538e-51 7.46663e-53 2.53502e-56 -1.08564e-54 -6.31501e-55 -1.29624e-55 -9.10664e-57 -2.59857e-58 -2.72882e-60 -4.25764e-63 1.5518e-63 1.1143e-63 3.61661e-64 3.55591e-65 7.35899e-67 2.37618e-69 1.04144e-72 6.73315e-77 6.1047e-81 5.51781e-85 6.41731e-89 4.10535e-93 3.45006e-97 -1.20411e-98 -6.82979e-99 -1.28816e-99 -5.5329e-101 -4.09473e-103 -4.18922e-106 -1.10964e-108 -9.23814e-110 -5.115e-111 -7.33338e-113 -1.7049e-115 -5.52277e-119 -3.6968e-123 -3.48038e-127 5.85056e-131 7.12981e-131 4.18172e-131 9.89152e-132 6.57411e-133 8.5649e-135 1.67511e-137 4.12214e-141 4.73729e-145 2.99688e-149 2.67116e-153 2.38401e-157 2.74867e-161 1.74873e-165 1.33045e-169 1.75838e-170 2.61455e-171 6.66985e-173 3.05231e-175 2.6067e-178 3.44714e-182 3.18206e-186 2.94125e-190 3.50258e-194 2.29093e-198 2.10075e-202 2.48373e-206 4.15994e-210 3.52355e-212 2.95624e-214 6.24414e-217 1.65526e-220 1.70678e-224 2.28359e-228 1.69849e-232 1.79571e-236 1.91367e-240 2.64517e-244 2.03551e-248 5.06291e-252 2.28502e-252 4.14601e-255 1.86632e-257 3.09672e-259 2.52674e-261 3.25556e-264 4.07806e-268 3.76197e-272 4.43652e-276 2.81994e-280 2.52003e-284 2.20813e-288 2.48715e-292 1.53508e-296 1.33033e-300 0.0 0.0 0.0 0.0 0.0 0.0 0.0 0.0 0.0 0.0 0.0 0.0 0.0 0.0 0.0 0.0 0.0 0.0 0.0 0.0 0.0 0.0 0.0 0.0 0.0 0.0 0.0 0.0 0.0 0.0 0.0 0.0 0.0 0.0 0.0 0.0 0.0 0.0 0.0 0.0 0.0 0.0 0.0 0.0 0.0 0.0 0.0 0.0 0.0 0.0 0.0 0.0 0.0 0.0 0.0 0.0 0.0 0.0 0.0 0.0 0.0 0.0 0.0 0.0 0.0 0.0 0.0 0.0 0.0 0.0 0.0 0.0 0.0 0.0 0.0 0.0 0.0 0.0 0.0 0.0 0.0 0.0 0.0 0.0 0.0 0.0 0.0 0.0 0.0 0.0 0.0 0.0 0.0 0.0 0.0 0.0 0.0 0.0 0.0 0.0 0.0 0.0 0.0 0.0 0.0 0.0 0.0 0.0 0.0 0.0 0.0 0.0 0.0 0.0 0.0 0.0 0.0 0.0 0.0 0.0 0.0 0.0 0.0 0.0 0.0 0.0 0.0 0.0 0.0 0.0 0.0 0.0 0.0 0.0 0.0 0.0 0.0 0.0 0.0 0.0 0.0 0.0 0.0 0.0 0.0 0.0 0.0 0.0 0.0 0.0 0.0 0.0 0.0 0.0 0.0 0.0 0.0 0.0 0.0 0.0 0.0 0.0 0.0 0.0 0.0 0.0 0.0 0.0 0.0 0.0 0.0 0.0 0.0 0.0 0.0 0.0 0.0 0.0 0.0 0.0 0.0 0.0 0.0 0.0 0.0 0.0 0.0 0.0 0.0 0.0 0.0 0.0 0.0 0.0 0.0 0.0 0.0 0.0 0.0 0.0 0.0 0.0 0.0 0.0 0.0 0.0 0.0 0.0 0.0 0.0 0.0 0.0 0.0 0.0 0.0 0.0 0.0 0.0 0.0 0.0 0.0 0.0 0.0 0.0 0.0 0.0 0.0 0.0 0.0 0.0 0.0 0.0 0.0 0.0 0.0 0.0 0.0 0.0 0.0 0.0 0.0 0.0 0.0 0.0 0.0 0.0 0.0 0.0 0.0 0.0 0.0 0.0 0.0 0.0 0.0 0.0 0.0 0.0 0.0 0.0 0.0 0.0 0.0 0.0 0.0 0.0 0.0 0.0 0.0 0.0 0.0 0.0 0.0 0.0 0.0 0.0 0.0 0.0 0.0 0.0 0.0 0.0 0.0 0.0 0.0 0.0 0.0 0.0 0.0 0.0 0.0 0.0 0.0 0.0 0.0 0.0 0.0 0.0 0.0 0.0 0.0 0.0 0.0 0.0 0.0 0.0 0.0 0.0 0.0 0.0 0.0 0.0 0.0 0.0 0.0 0.0 0.0 0.0 0.0 0.0 0.0 0.0 0.0 0.0 0.0 0.0 0.0 0.0 0.0 0.0 0.0 0.0 0.0 0.0 0.0 0.0 -1.70628e-113 -1.9314e-113 -4.85992e-112 7.20587e-106 -4.48933e-100 5.48865e-94 -2.36971e-87 1.86196e-80 -1.77236e-73 1.74961e-66 -1.67237e-59 1.48405e-52 -1.17076e-45 8.82274e-39 -3.05484e-32 1.77268e-26 -9.01245e-23 3.71227e-08 8.22067e-05 0.219239 5998.88 6000.0 6000.0 6000.0 6000.0 6000.0 6000.0 6000.0 6000.0 6000.0 5999.83 1.12187 0.000182717 4.77811e-08 1.43916e-11 -3.22672e-12 -2.86279e-12 -1.8776e-12 -7.34923e-13 -1.26657e-13 -6.42813e-15 -6.76538e-17 -1.09419e-19 -2.30685e-23 -9.66321e-28 1.85159e-28 9.04711e-29 1.21509e-29 2.99813e-31 9.27659e-34 2.66195e-37 2.34683e-41 4.71251e-42 -1.8297e-37 3.4973e-33 -9.9004e-20 3.6854e-09 2.73055e-05 0.200274 5998.95 6000.0 6000.0 6000.0 6000.0 6000.0 6000.0 6000.0 6000.0 6000.0 5999.85 1.04627 0.00011313 2.83568e-08 -1.87992e-12 -4.35692e-12 -2.89434e-12 -7.07