/*--------------------------------*- C++ -*----------------------------------*\
| =========                 |                                                 |
| \\      /  F ield         | OpenFOAM: The Open Source CFD Toolbox           |
|  \\    /   O peration     | Version:  2512                                  |
|   \\  /    A nd           | Website:  www.openfoam.com                      |
|    \\/     M anipulation  |                                                 |
\*---------------------------------------------------------------------------*/
FoamFile
{
    version     2.0;
    format      ascii;
    arch        "LSB;label=32;scalar=64";
    class       volScalarField;
    location    "2";
    object      B;
}
// * * * * * * * * * * * * * * * * * * * * * * * * * * * * * * * * * * * * * //

dimensions      [0 -3 0 0 1 0 0];

internalField nonuniform List<scalar> 79633(-1.49901e-172 -1.49901e-172 -4.51403e-170 1.47454e-161 -6.15223e-154 7.29093e-147 -3.93236e-140 1.29463e-133 -3.11156e-127 6.08682e-121 -1.03588e-114 1.60076e-108 -2.3093e-102 3.17127e-96 -4.20344e-90 5.43568e-84 -6.91202e-78 8.69797e-72 -1.08817e-65 1.35745e-59 -1.68848e-53 2.08566e-47 -2.53073e-41 2.88374e-35 1.145e-24 2.90207e-23 -1.8227e-14 5995.62 6000.0 6000.0 6000.0 6000.0 6000.0 6000.0 6000.0 6000.0 6000.0 6000.0 6000.0 6000.0 6000.0 6000.0 6000.0 6000.0 4.47913 2.22892e-06 1.38433e-16 8.95567e-24 4.1426e-30 5.89478e-34 3.01035e-35 1.78804e-39 -6.02238e-43 1.02724e-49 1.16456e-47 2.00753e-42 3.95196e-37 3.7083e-32 2.13718e-27 2.09822e-24 5.2756e-23 -2.65481e-14 5994.96 6000.0 6000.0 6000.0 6000.0 6000.0 6000.0 6000.0 6000.0 6000.0 6000.0 6000.0 6000.0 6000.0 6000.0 6000.0 6000.0 5.49111 3.04619e-06 1.94442e-14 1.19997e-15 5.02396e-17 -7.53362e-21 -1.1351e-19 -9.25984e-20 -5.13317e-20 -1.83471e-20 -4.2127e-21 -6.34425e-22 -6.91541e-23 -8.5521e-24 -8.88743e-25 -6.46491e-26 -3.18551e-27 -1.06558e-28 -3.74726e-30 -1.12499e-31 6.19134e-33 1.09722e-32 1.21925e-32 5.7696e-33 1.01921e-34 9.01041e-37 5.75113e-39 3.61115e-41 1.15145e-43 2.59596e-46 -4.27751e-48 -3.58357e-48 -4.71237e-49 -4.46545e-51 5.09787e-53 9.28317e-54 1.04065e-55 3.61131e-59 7.05102e-64 6.83748e-69 -2.56405e-72 -6.49914e-74 -4.95652e-77 -2.03125e-81 9.7217e-84 1.11336e-84 4.54826e-86 4.43834e-88 -2.61814e-86 1.97267e-80 -1.53728e-74 1.22371e-68 -9.952e-63 8.26478e-57 -6.97403e-51 5.93131e-45 -5.00044e-39 7.22054e-26 1.17118e-22 1.79064e-21 -1.25708e-12 5990.36 6000.0 6000.0 6000.0 6000.0 6000.0 6000.0 6000.0 6000.0 6000.0 6000.0 6000.0 6000.0 6000.0 6000.0 6000.0 6000.0 10.0198 1.48789e-05 3.70638e-14 4.25269e-15 4.35353e-17 -7.83984e-18 -1.16507e-17 -1.59966e-17 -1.33674e-17 -8.30374e-18 -3.95032e-18 -1.42383e-18 -3.5901e-19 -5.2621e-20 -6.16678e-21 -8.38601e-22 -9.18348e-23 -7.8493e-24 -9.36536e-25 -1.21676e-25 -1.42652e-26 -1.37534e-27 -1.09591e-28 -8.36122e-30 -8.34611e-31 -8.81721e-32 -7.36741e-33 -4.4618e-34 3.0385e-35 6.75175e-35 7.6778e-35 8.75942e-35 6.51243e-35 3.01974e-35 8.95649e-37 1.33649e-37 1.35561e-38 1.53645e-40 -9.09238e-42 -1.92467e-41 -1.78497e-41 -1.53201e-41 -1.21201e-41 -5.84201e-42 -1.04717e-42 -3.79947e-45 -7.17828e-47 -1.6997e-48 -7.53256e-50 -1.30354e-51 -7.64908e-53 -3.94722e-52 -1.47288e-52 -6.84301e-54 -1.97047e-56 -2.3267e-60 -3.42638e-65 -6.8681e-70 -1.73618e-74 -2.38115e-79 -1.41749e-82 -1.01217e-86 -9.69839e-91 -8.92496e-95 -7.28316e-99 -9.13273e-101 -1.53738e-104 -1.22293e-109 7.54313e-114 1.55256e-114 2.01293e-116 1.1344e-119 2.45476e-124 4.0099e-125 7.28028e-129 -4.08197e-133 1.62525e-131 8.82417e-132 1.76511e-133 6.45091e-137 7.51383e-142 9.70863e-143 -5.89501e-137 3.82696e-131 -2.54115e-125 1.67504e-119 -1.14014e-113 7.65237e-108 -5.38383e-102 3.7744e-96 -2.67412e-90 1.91975e-84 -1.27746e-78 7.5739e-73 -1.78373e-58 1.19641e-43 2.27823e-41 -1.29512e-37 -1.13696e-21 5988.35 6000.0 6000.0 6000.0 6000.0 6000.0 6000.0 6000.0 6000.0 6000.0 6000.0 6000.0 6000.0 6000.0 6000.0 6000.0 6000.0 11.4307 2.24007e-05 3.13204e-14 3.50562e-15 2.15472e-17 1.85851e-20 -4.81184e-20 -5.16271e-20 -4.35204e-20 -3.60552e-20 -2.8546e-20 -2.06484e-20 -1.27129e-20 -6.50046e-21 -2.42878e-21 -1.91896e-22 -3.68329e-23 -6.66868e-24 -5.82371e-25 -9.00088e-27 -6.04094e-28 -5.91679e-29 -2.26995e-30 -6.96729e-32 -3.53946e-33 -2.22861e-34 -1.2861e-35 -7.46218e-37 -4.07497e-38 -2.28864e-39 -1.12604e-40 4.8971e-41 5.62121e-41 5.13884e-41 3.99059e-41 1.77553e-41 4.94559e-42 4.81914e-43 6.03184e-45 1.3939e-45 3.6274e-48 -1.11576e-48 -1.48327e-48 -2.16499e-48 -2.78835e-48 -3.41446e-48 -3.58809e-48 -4.0169e-48 -3.66291e-48 -2.31109e-48 -1.48825e-48 -3.92888e-50 -9.21746e-54 2.06988e-59 -2.02153e-60 -1.9237e-60 -9.95363e-61 -5.06719e-61 -2.13122e-61 -6.68737e-62 -1.40196e-62 -1.47568e-63 -1.03472e-66 4.07261e-67 1.42492e-67 3.36778e-68 2.95779e-69 7.32821e-72 2.80337e-76 2.89647e-81 2.94449e-86 3.00233e-91 -5.89069e-96 -1.28885e-97 -8.5419e-101 -2.30329e-105 -3.48658e-110 9.39388e-115 2.58729e-116 7.84822e-120 1.19042e-124 -6.32942e-127 -1.72701e-128 -1.62426e-131 -1.33242e-132 -3.56405e-134 -1.01045e-135 -7.99758e-139 -1.50276e-143 3.8081e-144 2.91718e-146 1.15014e-149 2.97193e-154 1.48937e-155 6.60095e-159 3.18194e-160 -1.07297e-157 -7.19794e-159 -3.11299e-160 -3.90914e-163 -5.83348e-167 5.92534e-148 -2.2704e-133 -2.91672e-125 7.73335e-123 -4.20007e-124 -1.40784e-121 -1.90759e-123 2.76279e-124 8.70682e-124 2.09691e-123 3.31091e-123 9.5052e-123 5.60365e-123 2.33868e-123 1.26766e-124 5.02887e-128 -5.38685e-131 -2.34604e-131 -1.77103e-132 -1.50183e-134 -1.56634e-137 -1.19254e-140 -1.87951e-143 -3.27572e-143 -1.11045e-144 -4.89391e-148 6.60803e-153 5.00658e-154 4.76436e-157 -8.90264e-162 -1.63007e-163 -6.75427e-167 -6.41447e-170 -1.41754e-173 7.96332e-178 3.85946e-179 5.16875e-182 -5.02299e-183 -5.5356e-185 -9.27743e-187 5.70424e-186 1.24897e-172 -7.31243e-166 6.17906e-159 1.86514e-159 5.1866e-156 6.50729e-155 3.02453e-154 6.79365e-154 4.2605e-154 6.52612e-155 3.41483e-155 1.85324e-155 8.40981e-156 3.09064e-156 2.80499e-157 3.49785e-159 3.85646e-162 -1.98994e-166 -1.984e-167 -1.60962e-169 -8.10559e-173 -2.42945e-177 1.22723e-181 6.10761e-183 1.39252e-185 -4.33375e-190 -3.71449e-191 -1.58953e-192 -1.70748e-195 -1.70895e-199 -2.6512e-203 6.39525e-202 2.22839e-203 2.3745e-206 -5.29478e-211 -1.73027e-210 -8.37274e-212 -1.09964e-214 2.55454e-219 1.30089e-218 4.60189e-220 5.0498e-223 1.48733e-227 6.43944e-228 9.54401e-228 2.17668e-229 1.12007e-232 -5.4332e-235 -2.19076e-236 -1.09532e-237 -2.82505e-239 -1.46165e-242 -5.72549e-247 3.2789e-250 1.03623e-249 1.65679e-247 -1.14002e-241 7.77522e-236 -5.43038e-230 3.77099e-224 -2.62737e-218 1.83699e-212 -1.28911e-206 8.98055e-201 -6.40415e-195 4.54925e-189 -3.24616e-183 2.32731e-177 -1.67686e-171 1.20215e-165 -8.81816e-160 6.45959e-154 -4.76109e-148 3.53216e-142 -2.63867e-136 1.96804e-130 -1.50141e-124 1.14837e-118 -8.86253e-113 6.90536e-107 -5.39549e-101 4.31017e-95 -3.46762e-89 2.82159e-83 -2.32122e-77 1.92797e-71 -1.6047e-65 1.34253e-59 -8.79836e-54 -3.0549e-44 2.39409e-29 2.43418e-25 9.81089e-24 8.95081e-25 5990.74 6000.0 6000.0 6000.0 6000.0 6000.0 6000.0 6000.0 6000.0 6000.0 6000.0 6000.0 6000.0 6000.0 6000.0 6000.0 6000.0 8.70701 1.14753e-05 3.11857e-16 9.0921e-18 -7.70549e-21 -7.13275e-20 -5.25402e-19 -3.89239e-19 -2.11182e-20 -3.63844e-23 8.27432e-27 3.41746e-27 4.73546e-28 5.48245e-30 5.41931e-32 5.29611e-34 1.44632e-36 9.66647e-39 4.62738e-41 1.92689e-43 3.10577e-44 1.33109e-43 4.93076e-43 5.7545e-43 1.76242e-43 3.59348e-45 1.06673e-48 -2.6952e-50 -9.63708e-51 -4.50248e-52 -1.52783e-54 -3.61246e-57 -4.69565e-60 2.57473e-61 1.18086e-61 2.45446e-62 1.44862e-63 4.55494e-65 8.05344e-69 -1.64736e-72 -6.08374e-73 -1.57715e-73 -2.4417e-76 -1.52894e-81 4.23308e-85 2.03812e-85 1.15066e-88 -2.00983e-91 -1.83172e-94 2.67142e-97 3.5319e-97 1.95799e-97 1.53533e-99 2.89777e-101 -1.49901e-172 -1.49901e-172 -1.67669e-170 3.85054e-162 -1.19607e-154 1.09341e-147 -4.7306e-141 1.3028e-134 -2.72499e-128 4.80682e-122 -7.61368e-116 1.12694e-109 -1.59918e-103 2.21577e-97 -3.03729e-91 4.16094e-85 -5.73468e-79 7.98184e-73 -1.12135e-66 1.57975e-60 -2.1938e-54 2.90102e-48 -3.41723e-42 2.62656e-36 3.65702e-26 3.43431e-27 -5.86915e-18 5996.56 6000.0 6000.0 6000.0 6000.0 6000.0 6000.0 6000.0 6000.0 6000.0 6000.0 6000.0 6000.0 6000.0 6000.0 6000.0 6000.0 3.53304 4.60541e-07 1.19132e-15 3.78151e-21 1.89101e-25 3.10396e-27 5.9353e-30 -8.10607e-34 -1.90963e-35 -1.71362e-40 6.52873e-45 3.86751e-42 1.49467e-36 2.00129e-31 1.0353e-26 8.069e-24 1.70093e-22 -8.1296e-14 5996.1 6000.0 6000.0 6000.0 6000.0 6000.0 6000.0 6000.0 6000.0 6000.0 6000.0 6000.0 6000.0 6000.0 6000.0 6000.0 6000.0 4.26186 6.11139e-07 8.64568e-10 5.60675e-12 2.65848e-15 -2.24838e-15 -2.28358e-15 -2.05632e-15 -1.50502e-15 -8.52529e-16 -3.66133e-16 -1.18015e-16 -2.83483e-17 -5.05043e-18 -6.60305e-19 -6.17951e-20 -3.9433e-21 -1.62003e-22 -6.2004e-24 -2.45521e-25 -5.7432e-27 -7.27881e-29 2.81918e-30 4.6946e-30 4.64246e-30 1.56294e-30 4.31834e-32 4.09588e-34 1.55136e-36 5.79265e-39 7.48702e-42 -7.41379e-45 -9.18901e-45 -5.44494e-45 -1.06162e-45 -3.95841e-47 -1.17894e-49 2.33066e-50 7.34769e-51 3.00739e-52 9.01913e-55 1.38081e-58 1.7986e-63 -1.10079e-63 -1.11895e-64 -5.91635e-67 -1.33707e-70 -2.15637e-75 -4.5266e-80 1.36203e-81 -9.45915e-76 9.20056e-70 -9.15285e-64 9.23306e-58 -9.24218e-52 8.83456e-46 -7.44314e-40 2.21459e-27 2.14275e-24 2.43067e-25 1.1829e-16 5992.74 6000.0 6000.0 6000.0 6000.0 6000.0 6000.0 6000.0 6000.0 6000.0 6000.0 6000.0 6000.0 6000.0 6000.0 6000.0 6000.0 7.56253 2.4201e-06 1.93451e-09 1.49991e-11 3.31584e-14 -7.95404e-15 -8.76e-15 -9.2266e-15 -8.47638e-15 -7.09343e-15 -5.45203e-15 -3.7774e-15 -2.23956e-15 -9.97882e-16 -2.87096e-16 -9.36116e-17 -2.71236e-17 -6.02031e-18 -9.2511e-19 -1.29287e-19 -1.78171e-20 -2.05072e-21 -1.85476e-22 -1.46576e-23 -1.44125e-24 -1.78293e-25 -1.77853e-26 -1.36832e-27 -8.99589e-29 -5.47704e-30 -3.47935e-31 3.69764e-33 3.02555e-32 3.32259e-32 3.54073e-32 2.68016e-32 1.25387e-32 8.29e-34 6.25987e-35 3.68358e-36 1.27515e-37 1.67787e-38 -6.27265e-39 -8.94165e-39 -7.18165e-39 -4.1702e-39 -9.97556e-40 -2.36147e-41 -1.21093e-42 -3.65304e-44 -3.34303e-46 -4.39928e-47 -1.09893e-47 -9.18614e-49 -1.26307e-50 -1.83249e-53 -1.74831e-57 -7.36194e-62 7.74035e-64 3.55239e-64 3.25598e-65 3.28239e-67 2.46142e-70 8.49551e-75 3.2717e-79 1.6408e-83 4.48283e-88 1.69104e-92 4.09231e-97 -1.08209e-97 -1.91229e-98 -2.56823e-100 -1.82725e-103 -8.21178e-108 -1.69929e-112 -5.1471e-111 -3.49126e-112 -1.50975e-114 -3.81385e-118 -1.10575e-122 -3.99871e-127 1.16054e-127 -2.51725e-126 2.11474e-120 -1.84826e-114 1.65709e-108 -1.54174e-102 1.49415e-96 -1.50691e-90 1.60444e-84 -1.80937e-78 2.18352e-72 -2.84979e-66 4.07764e-60 -6.4634e-54 1.69303e-45 -1.65274e-41 -2.01295e-35 2.11977e-18 5991.26 6000.0 6000.0 6000.0 6000.0 6000.0 6000.0 6000.0 6000.0 6000.0 6000.0 6000.0 6000.0 6000.0 6000.0 6000.0 6000.0 8.56043 3.53526e-06 1.93684e-09 1.41783e-11 2.92926e-14 1.68041e-17 -8.49312e-19 -7.3324e-19 1.10382e-19 2.25717e-19 -3.37313e-19 -8.44944e-19 -9.15256e-19 -7.96935e-19 -6.38308e-19 -4.93783e-19 -3.0964e-19 -1.50564e-19 -5.32756e-20 -5.81107e-21 -8.72803e-22 -1.25372e-22 -6.69656e-24 -1.84396e-25 -9.18152e-27 -6.19055e-28 -3.6481e-29 -2.22222e-30 -1.31655e-31 -7.40854e-33 -5.94663e-34 -4.97826e-35 -2.96252e-36 -9.57552e-38 1.18256e-38 1.07588e-38 5.43661e-39 1.6284e-39 2.5181e-40 4.12472e-42 -3.7933e-43 -5.24308e-43 -7.72213e-43 -1.30113e-42 -2.05225e-42 -2.99611e-42 -3.7698e-42 -5.28727e-42 -5.51576e-42 -3.70911e-42 -8.61836e-44 -6.32347e-47 1.34075e-50 1.612e-51 1.20793e-53 1.10413e-56 1.19544e-57 -7.09315e-59 -2.56573e-58 -1.60973e-58 -6.70638e-59 -2.74527e-59 -9.55404e-60 -1.86328e-60 -8.83783e-62 2.17464e-64 1.20366e-64 1.4083e-65 2.97682e-67 7.3092e-70 1.36442e-73 5.75892e-78 -4.13339e-82 -3.01682e-83 -1.61837e-85 -6.12643e-89 -2.20629e-93 1.39304e-97 9.05562e-99 3.89627e-101 1.13974e-104 4.26876e-109 1.84696e-113 4.2234e-115 1.20941e-115 1.35182e-116 2.76528e-118 6.00974e-121 5.16761e-124 -2.33007e-127 -1.16522e-127 -9.97851e-129 -1.40641e-130 -1.839e-133 -1.27497e-137 2.01496e-139 5.51948e-140 1.64753e-141 3.51387e-144 3.1877e-148 6.98714e-151 -1.21205e-141 -4.40484e-124 -2.79685e-120 1.02699e-117 -6.12565e-116 -6.86846e-117 3.33271e-118 3.61904e-117 1.30192e-116 3.88974e-116 8.17989e-116 2.09172e-115 2.29906e-115 5.67823e-117 3.15853e-120 -8.00588e-124 -1.11203e-123 -8.18985e-124 -1.09768e-124 -1.43909e-126 -7.32344e-130 -6.59897e-134 -2.00132e-135 -1.00511e-137 3.33473e-140 1.54257e-140 1.62823e-141 3.08786e-143 8.99077e-146 1.16102e-149 -6.73895e-152 -1.55011e-152 -2.96786e-154 -2.79552e-157 1.05712e-161 5.52865e-163 8.53149e-164 1.12982e-164 6.73588e-167 -5.56167e-167 -3.24429e-167 6.87796e-164 -3.87026e-158 -1.52936e-154 -5.50543e-154 4.54504e-149 8.9412e-148 7.08071e-147 2.8292e-146 3.85969e-146 3.54824e-147 9.63235e-148 5.71406e-148 2.07354e-148 6.77242e-149 2.88741e-149 6.57325e-150 3.75446e-151 2.89424e-153 2.55987e-156 4.36653e-161 -4.83727e-161 -7.38058e-162 -8.67232e-164 -7.28796e-167 -1.94227e-171 2.72205e-172 2.21348e-173 6.04925e-176 -1.99173e-181 -2.30398e-181 -1.52504e-182 -1.37935e-184 -9.71091e-188 4.68486e-193 1.83895e-192 2.33822e-193 2.3503e-195 3.96111e-199 -3.27918e-200 -2.40894e-201 -6.49045e-204 -1.72866e-207 -2.59231e-207 -2.45067e-208 -1.95137e-210 -1.0875e-213 5.53381e-218 5.41049e-218 8.1805e-219 1.92364e-220 3.35567e-223 -6.24516e-228 -1.47039e-228 -9.35482e-231 -1.54452e-232 -4.93313e-234 -3.97998e-236 -3.73927e-232 2.9431e-226 -2.24961e-220 1.73071e-214 -1.34081e-208 1.04655e-202 -7.99651e-197 6.51346e-191 -5.21694e-185 4.22006e-179 -3.45014e-173 2.85307e-167 -2.32545e-161 2.01918e-155 -1.73737e-149 1.51809e-143 -1.34881e-137 1.2203e-131 -1.10023e-125 1.05762e-119 -1.02061e-113 1.01042e-107 -1.0287e-101 1.05973e-95 -1.16703e-89 1.31276e-83 -1.53499e-77 1.87008e-71 -2.37745e-65 3.12094e-59 -4.33528e-53 6.18651e-47 -8.98821e-41 5.34717e-31 2.44042e-27 1.87224e-22 -1.44897e-13 5992.98 6000.0 6000.0 6000.0 6000.0 6000.0 6000.0 6000.0 6000.0 6000.0 6000.0 6000.0 6000.0 6000.0 6000.0 6000.0 6000.0 6.57327 1.82559e-06 5.22252e-12 6.55637e-16 -2.3188e-15 -1.10029e-14 -1.91031e-14 -5.95554e-15 -1.90361e-16 -3.18725e-19 3.92178e-23 2.68889e-23 1.27493e-23 2.03486e-24 8.62727e-26 1.44818e-27 4.46351e-30 3.07368e-32 1.73513e-34 8.05815e-37 3.65877e-38 6.5837e-38 1.41858e-37 6.07791e-38 2.71201e-39 6.81786e-42 -6.19667e-44 -1.06334e-43 -5.96613e-44 -4.3463e-45 -2.04385e-47 -9.20237e-51 9.12548e-55 7.09975e-55 6.40898e-55 2.36425e-55 3.44366e-57 1.37565e-60 1.43858e-65 -5.36925e-66 -8.81854e-67 -6.07221e-69 -9.75453e-73 4.35939e-76 2.68996e-77 3.28671e-80 -1.02908e-81 -3.44996e-83 -1.33131e-86 -4.58022e-91 1.6554e-93 3.1267e-93 4.62585e-93 1.44605e-93 -1.49901e-172 -1.49901e-172 -4.01281e-171 4.91187e-163 -8.85616e-156 4.96527e-149 -1.41316e-142 2.76542e-136 -4.42417e-130 6.38305e-124 -8.79132e-118 1.19967e-111 -1.66593e-105 2.41243e-99 -3.72518e-93 6.24436e-87 -1.14252e-80 2.26296e-74 -4.7567e-68 1.03611e-61 -2.28436e-55 5.01189e-49 -1.08902e-42 1.41057e-36 1.03239e-28 1.70373e-23 -1.60713e-14 5996.01 6000.0 6000.0 6000.0 6000.0 6000.0 6000.0 6000.0 6000.0 6000.0 6000.0 6000.0 6000.0 6000.0 6000.0 6000.0 6000.0 4.07149 9.01279e-07 2.83741e-13 1.49445e-16 7.81116e-20 5.53347e-23 1.2143e-27 -5.91535e-28 -8.821e-29 -2.33058e-31 -7.66219e-36 -1.50698e-40 4.80648e-39 1.91056e-34 6.27504e-32 1.82202e-28 4.73787e-24 9.84621e-18 5995.42 6000.0 6000.0 6000.0 6000.0 6000.0 6000.0 6000.0 6000.0 6000.0 6000.0 6000.0 6000.0 6000.0 6000.0 6000.0 6000.0 4.87237 3.76669e-05 1.38267e-07 2.52291e-10 -1.41868e-13 -3.84129e-13 -3.82536e-13 -3.62269e-13 -3.11474e-13 -2.35753e-13 -1.54002e-13 -8.53986e-14 -3.94479e-14 -1.48649e-14 -4.50663e-15 -1.0792e-15 -1.9681e-16 -2.57926e-17 -2.22839e-18 -1.15549e-19 -3.39312e-21 -5.59701e-23 -8.96314e-25 -1.30923e-26 4.05112e-28 5.32777e-28 4.61609e-28 1.2984e-28 4.46103e-30 3.04047e-32 6.09804e-35 6.74045e-38 3.30372e-40 -2.97329e-42 -7.22577e-42 -5.42429e-42 -1.78873e-42 -1.53224e-43 -2.11693e-45 -3.14384e-48 -3.78684e-52 -1.72298e-56 -1.00628e-60 -5.95671e-65 -7.04988e-67 -3.7658e-69 -1.99212e-72 -6.15735e-77 -2.33368e-81 1.27787e-82 -1.06761e-77 1.55159e-71 -2.3294e-65 3.55304e-59 -5.32714e-53 7.58358e-47 -9.92724e-41 5.96181e-30 3.17912e-27 2.97039e-22 -2.65415e-13 5991.61 6000.0 6000.0 6000.0 6000.0 6000.0 6000.0 6000.0 6000.0 6000.0 6000.0 6000.0 6000.0 6000.0 6000.0 6000.0 6000.0 8.62365 9.41828e-05 3.05821e-07 6.23178e-10 8.05947e-13 -8.47043e-14 -8.08819e-14 -7.21969e-14 -6.54685e-14 -6.01191e-14 -5.73984e-14 -5.54975e-14 -5.16412e-14 -4.50831e-14 -3.66161e-14 -2.55421e-14 -1.5366e-14 -7.83498e-15 -3.03635e-15 -9.54155e-16 -2.98589e-16 -8.19508e-17 -1.79126e-17 -3.18719e-18 -5.19525e-19 -7.58917e-20 -8.90047e-21 -8.01128e-22 -5.99057e-23 -4.03317e-24 -2.81914e-25 -2.31827e-26 -1.35178e-27 -4.86522e-29 1.32424e-30 3.04408e-30 3.21339e-30 3.26166e-30 2.42385e-30 8.70695e-31 1.14457e-31 3.07365e-32 7.27499e-33 7.9179e-34 1.06079e-35 -1.36987e-36 -1.16767e-36 -7.47926e-37 -3.12193e-37 -6.82606e-38 -2.51519e-39 -1.3757e-41 -1.07345e-44 3.75126e-46 2.88839e-46 1.01809e-46 9.73882e-48 1.57521e-49 3.00662e-52 9.88498e-56 1.48702e-57 2.62478e-59 1.1775e-61 6.39413e-65 4.47266e-69 3.8064e-73 1.70018e-77 -1.095e-81 -1.3696e-81 -4.368e-82 -2.71554e-83 -2.1237e-85 -1.42891e-88 4.27091e-92 6.08214e-93 1.18712e-94 2.53168e-97 4.56068e-101 2.2069e-105 -2.10095e-107 -1.92796e-108 -1.93889e-110 -1.38539e-112 7.68763e-112 -7.33936e-106 7.35936e-100 -7.77751e-94 8.67189e-88 -1.01974e-81 1.29031e-75 -1.77894e-69 2.7351e-63 -4.80182e-57 1.00817e-50 -2.66657e-44 9.32492e-38 -4.33357e-31 2.30244e-24 -4.11651e-15 5990.04 6000.0 6000.0 6000.0 6000.0 6000.0 6000.0 6000.0 6000.0 6000.0 6000.0 6000.0 6000.0 6000.0 6000.0 6000.0 6000.0 9.82692 0.00011096 3.43192e-07 6.56374e-10 9.16311e-13 1.18532e-15 9.76642e-16 2.16679e-15 6.81314e-15 1.16784e-14 1.06211e-14 5.97715e-15 1.87907e-15 3.66853e-16 4.8055e-17 -1.8926e-18 -6.99049e-18 -6.22528e-18 -4.54272e-18 -3.19455e-18 -1.86808e-18 -8.00303e-19 -2.05257e-19 -2.45184e-20 -3.86473e-21 -4.12262e-22 -2.39498e-23 -1.49084e-24 -9.68036e-26 -5.37256e-27 -4.22036e-28 -4.02511e-29 -2.89175e-30 -1.31168e-31 -4.82778e-33 -2.56779e-34 -1.79146e-35 -6.49187e-37 2.38261e-38 2.39232e-41 -1.75098e-38 -3.09099e-38 -5.78328e-38 -1.13346e-37 -2.01862e-37 -3.03056e-37 -3.6656e-37 -3.27342e-37 -1.41956e-37 -4.80818e-39 -1.02822e-41 1.44173e-43 4.65944e-44 2.2522e-45 9.7454e-48 1.2649e-50 3.10785e-51 1.11443e-51 2.36536e-52 2.62688e-53 1.50479e-54 3.2967e-56 -6.40617e-57 -3.62727e-57 -1.04698e-57 -2.51883e-58 -1.84004e-59 -3.39508e-62 2.86418e-62 6.04809e-63 1.41172e-64 3.16659e-67 3.75564e-72 -2.88079e-73 -2.22487e-74 -1.82248e-76 -2.52592e-79 1.40639e-83 2.55807e-84 6.22992e-86 1.64237e-88 4.21762e-92 2.46796e-96 -2.57341e-99 -5.9835e-100 -4.19233e-101 -1.80264e-102 -2.11125e-104 -3.2872e-107 8.73705e-111 1.51717e-111 8.8492e-113 1.03437e-114 2.32301e-117 5.9068e-121 -1.32477e-124 -1.08505e-124 -1.7894e-125 -3.8316e-127 -8.39773e-130 -2.31026e-131 6.60922e-130 -5.31553e-116 -4.62693e-116 1.66004e-113 -8.56535e-111 -1.05044e-111 6.28113e-111 1.98275e-110 6.1072e-110 1.87305e-109 5.27575e-109 1.1403e-109 1.8029e-111 1.33118e-114 -2.74074e-117 -1.87249e-117 -1.21668e-117 -2.38486e-118 -6.02201e-120 -1.16586e-122 -1.30111e-126 -1.96074e-130 -1.60134e-131 -1.35726e-133 1.34707e-133 9.86292e-134 3.98498e-134 6.52225e-135 2.86434e-136 2.12989e-138 2.5164e-141 -9.74235e-145 -8.66484e-145 -2.51956e-145 -1.50994e-146 -1.23492e-148 -9.67387e-152 1.16993e-154 1.02473e-154 4.97568e-155 6.79471e-156 1.58588e-155 -5.40722e-151 -8.5024e-147 -7.83564e-147 3.4791e-146 1.05816e-144 1.25662e-143 8.78869e-143 3.89839e-142 1.07243e-141 1.39843e-141 1.25875e-141 7.89826e-142 2.39511e-142 2.48712e-143 6.16653e-145 2.63115e-147 -3.45985e-151 -8.7467e-151 -4.68288e-151 -8.00047e-152 -2.80083e-153 -1.2414e-155 -7.18166e-159 2.86123e-160 1.21576e-160 9.93092e-162 9.36278e-164 5.68325e-167 1.27559e-170 -1.51664e-172 -4.64476e-173 -1.68117e-174 -4.46721e-177 2.08075e-180 1.82363e-180 5.87289e-181 3.85416e-182 3.14145e-184 2.20467e-187 -1.54781e-191 1.35952e-192 1.09985e-190 1.76222e-191 4.49645e-193 1.30115e-195 1.17554e-199 -3.98197e-202 -1.27738e-202 -5.32726e-204 -2.04203e-206 -1.6895e-210 6.41382e-213 6.98441e-214 5.69688e-216 1.18149e-218 1.3544e-221 -1.12817e-225 -1.03137e-226 -6.64292e-222 5.71935e-216 -4.47541e-210 3.68413e-204 -2.96517e-198 2.57158e-192 -2.19174e-186 1.89267e-180 -1.65736e-174 1.47301e-168 -1.28991e-162 1.2171e-156 -1.13831e-150 1.08571e-144 -1.0577e-138 1.05425e-132 -1.04848e-126 1.12586e-120 -1.21613e-114 1.35531e-108 -1.56206e-102 1.8252e-96 -2.30571e-90 2.97735e-84 -4.00536e-78 5.61432e-72 -8.18806e-66 1.22205e-59 -1.91652e-53 3.03025e-47 -4.76597e-41 9.49196e-34 -5.6353e-29 1.44156e-22 -1.6971e-13 5992.01 6000.0 6000.0 6000.0 6000.0 6000.0 6000.0 6000.0 6000.0 6000.0 6000.0 6000.0 6000.0 6000.0 6000.0 6000.0 6000.0 7.63586 5.15069e-06 2.36205e-09 -2.10934e-11 -3.05782e-11 -1.76844e-11 -5.45266e-12 -5.12602e-13 -7.74985e-15 -1.2944e-17 7.08788e-22 6.93825e-22 6.06125e-22 4.64824e-22 2.25057e-22 3.79768e-23 1.37587e-24 2.39217e-26 1.62349e-28 7.87032e-31 1.35952e-32 5.58695e-33 4.0473e-33 1.0346e-34 1.03963e-37 -1.49026e-38 -3.45759e-38 -3.28867e-38 -7.45036e-39 -1.6974e-40 -2.61771e-43 -2.03419e-47 4.26717e-50 5.39423e-50 1.65776e-50 4.91624e-52 8.20332e-55 -1.4024e-58 -2.70964e-59 -6.10098e-61 -1.17373e-63 6.88151e-67 1.74008e-67 4.31974e-69 5.5465e-72 -1.65856e-75 -6.18885e-76 -2.07093e-77 -3.5738e-80 -1.50883e-83 -1.97318e-86 -6.42275e-89 7.73214e-90 1.04673e-89 -1.49896e-172 -1.49897e-172 -8.95409e-172 4.41977e-164 -3.75621e-157 1.04554e-150 -1.62244e-144 1.93065e-138 -2.08829e-132 2.25442e-126 -2.5931e-120 3.4456e-114 -5.89415e-108 1.37559e-101 -4.04836e-95 1.33014e-88 -4.51696e-82 1.53546e-75 -5.15606e-69 1.70014e-62 -5.47444e-56 1.71714e-49 -5.26965e-43 1.24396e-36 -3.07108e-30 1.183e-23 -1.65943e-14 5995.56 6000.0 6000.0 6000.0 6000.0 6000.0 6000.0 6000.0 6000.0 6000.0 6000.0 6000.0 6000.0 6000.0 6000.0 6000.0 6000.0 4.49679 7.33661e-06 1.34023e-09 2.79053e-13 6.83634e-17 3.35088e-21 -1.25839e-24 -4.82451e-24 -1.17458e-24 -2.3121e-26 -1.95061e-29 -4.50148e-34 -7.74322e-39 4.60757e-39 5.9007e-35 -5.32049e-29 5.60307e-23 -4.05671e-14 5994.87 6000.0 6000.0 6000.0 6000.0 6000.0 6000.0 6000.0 6000.0 6000.0 6000.0 6000.0 6000.0 6000.0 6000.0 6000.0 6000.0 5.34998 0.000990694 9.35216e-07 7.28662e-10 -2.70531e-12 -3.19319e-12 -3.16888e-12 -3.06986e-12 -2.8584e-12 -2.52565e-12 -2.09334e-12 -1.60751e-12 -1.12601e-12 -7.02727e-13 -3.83516e-13 -1.80562e-13 -7.13899e-14 -2.27802e-14 -5.51369e-15 -9.25329e-16 -1.01101e-16 -7.04408e-18 -2.92636e-19 -5.96439e-21 -4.57265e-23 -1.63837e-25 2.46033e-26 2.50211e-26 1.88075e-26 4.00238e-27 1.55504e-28 8.34099e-31 8.53339e-34 3.69883e-35 2.54031e-36 5.24277e-38 -4.36861e-39 -3.70316e-39 -1.66205e-39 -2.4806e-40 -7.73122e-42 -3.34263e-44 -1.5319e-47 -6.20141e-52 -3.35853e-56 -1.72397e-60 -1.08036e-64 -3.51517e-69 -1.50265e-73 -7.67364e-78 -3.98775e-79 3.94478e-73 -9.53297e-67 2.19027e-60 -5.02456e-54 1.11711e-47 -2.35e-41 2.79134e-33 -2.96689e-29 9.59237e-23 9.52916e-17 5990.71 6000.0 6000.0 6000.0 6000.0 6000.0 6000.0 6000.0 6000.0 6000.0 6000.0 6000.0 6000.0 6000.0 6000.0 6000.0 6000.0 9.46708 0.00270088 2.08929e-06 2.29786e-09 8.60109e-12 2.60051e-12 1.01278e-12 3.24296e-13 4.80839e-13 1.0132e-12 1.24047e-12 1.00729e-12 4.72047e-13 6.46656e-14 -1.00319e-13 -1.38177e-13 -1.33725e-13 -1.10773e-13 -8.34449e-14 -5.87765e-14 -3.65197e-14 -1.96933e-14 -8.90205e-15 -3.27827e-15 -1.10691e-15 -3.43461e-16 -9.08045e-17 -1.91491e-17 -3.38874e-18 -5.42675e-19 -7.43443e-20 -7.59341e-21 -5.1328e-22 -2.26959e-23 -7.93445e-25 -3.56819e-26 -2.47366e-27 1.55721e-29 1.54741e-28 1.54594e-28 1.4629e-28 1.07024e-28 6.15219e-29 2.6473e-29 3.16148e-30 9.87687e-32 1.03789e-33 -4.25164e-35 -4.39547e-35 -3.28578e-35 -1.75126e-35 -5.2138e-36 -5.61569e-37 -1.40469e-38 -5.00498e-41 3.11968e-42 2.16199e-42 5.67087e-43 3.61172e-44 3.75266e-46 4.78057e-49 6.12747e-53 5.11628e-57 2.35447e-61 1.49877e-65 1.85384e-68 3.08883e-69 3.86337e-70 1.28926e-71 -4.30254e-73 -4.06494e-73 -2.02587e-73 -3.52314e-74 -1.3615e-75 -7.77788e-78 -4.84801e-81 -3.97153e-85 1.88732e-88 2.33232e-89 3.81262e-91 1.07257e-93 7.29304e-97 9.32748e-101 7.77762e-105 -2.72605e-105 3.14485e-99 -4.27768e-93 6.25975e-87 -9.81337e-81 1.68466e-74 -3.19163e-68 6.79178e-62 -1.64035e-55 4.65145e-49 -1.60237e-42 6.93997e-36 -3.84585e-29 2.57372e-22 -1.14059e-12 5989.05 6000.0 6000.0 6000.0 6000.0 6000.0 6000.0 6000.0 6000.0 6000.0 6000.0 6000.0 6000.0 6000.0 6000.0 6000.0 6000.0 10.8495 0.00338525 2.57224e-06 2.64583e-09 1.15797e-11 3.89906e-12 1.76172e-12 8.68123e-13 1.10556e-12 1.83268e-12 2.12084e-12 1.7808e-12 1.01523e-12 4.1699e-13 1.42353e-13 4.23763e-14 1.05067e-14 2.00094e-15 2.48394e-16 -7.83395e-18 -2.71046e-17 -2.29633e-17 -1.51856e-17 -9.23798e-18 -4.47328e-18 -1.48206e-18 -2.74547e-19 -4.9288e-20 -8.2687e-21 -1.03583e-21 -1.11865e-22 -1.17827e-23 -9.97489e-25 -5.39138e-26 -2.16774e-27 -1.1106e-28 -8.96371e-30 -4.84862e-31 -1.10797e-32 -1.67683e-34 -1.6713e-34 -4.31818e-34 -1.21811e-33 -3.13492e-33 -6.72928e-33 -9.0293e-33 -6.54233e-33 -1.65489e-33 -5.0103e-35 -5.35004e-38 1.04718e-37 8.17173e-38 2.3627e-38 1.27725e-39 6.8064e-42 6.40368e-45 1.11513e-45 5.42194e-46 1.75042e-46 3.02925e-47 2.68426e-48 1.2274e-49 3.25938e-51 7.50926e-53 7.42082e-55 -1.8619e-55 -1.05527e-55 -2.17311e-56 -1.14106e-57 -4.65533e-60 3.99743e-60 2.07568e-60 2.95003e-61 7.49473e-63 2.44624e-65 8.1355e-69 -3.33893e-73 -5.07829e-73 -1.4233e-73 -7.2689e-75 -4.60566e-77 -2.63579e-80 7.40859e-83 3.80964e-83 4.27666e-84 5.6687e-86 6.00135e-89 1.13758e-93 -1.4028e-93 -3.4712e-94 -1.18243e-95 -4.3185e-98 -1.33362e-101 4.97928e-106 7.73427e-106 2.18257e-106 1.15157e-107 7.65794e-110 4.73955e-113 2.99671e-117 -4.59766e-119 -1.86199e-119 -9.03663e-112 4.11007e-111 1.60353e-107 -1.10698e-103 -8.38725e-105 4.96905e-104 8.50302e-104 1.52309e-103 8.49663e-104 6.92732e-105 5.42319e-107 -6.77981e-110 -5.54399e-110 -8.33814e-111 -1.68414e-112 -1.23163e-114 -1.66916e-116 -2.45391e-119 1.3966e-120 1.53613e-121 1.92463e-123 3.43547e-126 9.33102e-128 8.4682e-128 7.1004e-128 4.41644e-128 1.53369e-128 2.06516e-129 7.09335e-131 4.56698e-133 3.00489e-136 -5.33116e-137 -2.67805e-137 -3.57382e-138 -1.23586e-139 -4.86528e-141 -2.45641e-142 -4.72483e-144 -1.52785e-146 8.57148e-148 2.39124e-147 -1.77445e-144 -1.52316e-141 -2.95268e-140 -3.67419e-140 -2.70127e-140 -5.44655e-140 -2.19393e-139 -2.42391e-139 1.86183e-139 5.90711e-139 6.57756e-139 6.02004e-139 3.89851e-139 1.28919e-139 1.49463e-140 2.04962e-142 -1.61446e-142 -1.26556e-142 -5.17005e-143 -7.57412e-144 -2.75427e-145 -1.68107e-147 -1.83484e-150 4.16822e-153 3.53226e-153 1.57669e-153 2.27699e-154 7.50288e-156 4.23673e-158 3.08298e-161 -5.78112e-165 -5.58251e-165 -1.72619e-165 -1.12235e-166 -2.6817e-169 4.41001e-169 1.95192e-169 2.00393e-170 2.97757e-172 -1.11926e-173 -6.69308e-174 -1.12126e-174 -3.04688e-176 -9.00248e-179 -2.26017e-182 9.85612e-186 4.74724e-186 7.50974e-187 1.90188e-188 4.71992e-191 1.22889e-196 -1.04605e-196 -2.82538e-198 -8.76696e-201 -2.8922e-203 -6.00157e-206 -7.54171e-209 -3.31201e-212 -1.30096e-212 -2.2229e-214 -6.17546e-211 1.96317e-206 -1.01023e-200 1.00195e-194 -9.596e-189 9.36197e-183 -9.31532e-177 9.46497e-171 -9.38544e-165 1.04218e-158 -1.13754e-152 1.27602e-146 -1.47385e-140 1.75648e-134 -2.07959e-128 2.75213e-122 -3.65077e-116 5.04097e-110 -7.25885e-104 1.05717e-97 -1.70657e-91 2.80127e-85 -4.79521e-79 8.53185e-73 -1.56945e-66 2.91007e-60 -5.65517e-54 1.09247e-47 -2.11155e-41 5.08814e-35 -9.93609e-29 2.80745e-22 -9.14394e-13 5991.25 6000.0 6000.0 6000.0 6000.0 6000.0 6000.0 6000.0 6000.0 6000.0 6000.0 6000.0 6000.0 6000.0 6000.0 6000.0 6000.0 8.49054 0.000330284 9.59752e-09 -2.63204e-08 -1.11546e-08 -1.59402e-09 -8.68452e-11 -1.83139e-12 -1.36422e-14 -3.38084e-16 -1.01958e-17 -1.84318e-18 -2.09755e-19 -3.2146e-21 3.86772e-21 2.66966e-21 1.02734e-21 1.49203e-22 7.64144e-24 2.06115e-25 3.2745e-27 3.2545e-28 2.21161e-30 1.02812e-33 -4.8125e-35 -9.48958e-35 -8.43728e-35 -2.43894e-35 -1.35453e-36 -9.29221e-39 -5.43401e-42 3.99434e-45 1.85952e-45 2.17937e-46 3.41376e-48 -7.76924e-51 -4.22761e-51 -4.46081e-52 -5.80008e-54 -4.95925e-57 4.28498e-60 8.97804e-61 2.60857e-62 8.16516e-65 2.14838e-68 -1.76246e-72 -8.90225e-73 -4.37989e-73 -3.39358e-74 -2.32935e-76 -3.10757e-79 -8.76306e-82 -7.21398e-84 -2.83917e-86 -1.49645e-172 -1.49678e-172 -2.83248e-172 3.40286e-165 -1.17024e-158 1.34725e-152 -9.61396e-147 6.04391e-141 -4.05183e-135 3.62197e-129 -6.60692e-123 2.50066e-116 -1.21701e-109 6.08688e-103 -2.96171e-96 1.38714e-89 -6.23163e-83 2.69347e-76 -1.12326e-69 4.5331e-63 -1.76955e-56 6.67947e-50 -2.44021e-43 8.03719e-37 -2.262e-30 7.09427e-24 -3.48625e-14 5995.19 6000.0 6000.0 6000.0 6000.0 6000.0 6000.0 6000.0 6000.0 6000.0 6000.0 6000.0 6000.0 6000.0 6000.0 6000.0 5998.04 4.85453 0.000405149 2.91345e-08 4.12849e-12 9.01571e-16 -5.56213e-19 -4.98133e-20 -8.179e-22 -3.37149e-23 -7.22064e-25 -2.18366e-27 -4.25073e-31 -1.44141e-35 -2.17529e-37 5.82502e-36 -1.1211e-29 5.11983e-24 1.13571e-16 5994.4 6000.0 6000.0 6000.0 6000.0 6000.0 6000.0 6000.0 6000.0 6000.0 6000.0 6000.0 6000.0 6000.0 6000.0 6000.0 5997.63 5.75049 0.00224045 1.2626e-06 6.32288e-10 -4.99375e-12 -5.10048e-12 -5.06284e-12 -4.94668e-12 -4.73277e-12 -4.41983e-12 -4.01539e-12 -3.52968e-12 -2.98531e-12 -2.42199e-12 -1.85946e-12 -1.31693e-12 -8.42551e-13 -4.76074e-13 -2.29979e-13 -8.94133e-14 -2.64429e-14 -5.78613e-15 -8.7339e-16 -7.83843e-17 -3.32835e-18 -5.93699e-20 -5.59776e-22 -2.70627e-24 7.49302e-25 7.11597e-25 4.09981e-25 8.0438e-26 3.85187e-27 4.24295e-29 6.81801e-31 3.05081e-32 7.29443e-34 -2.26431e-36 -5.54808e-36 -4.37604e-36 -1.98623e-36 -3.68357e-37 -1.86522e-38 -1.71225e-40 -2.0312e-43 -2.40791e-47 -1.77628e-51 -6.92796e-56 -3.63653e-60 -2.3282e-64 -7.67384e-69 5.15563e-74 -7.06854e-68 2.47578e-61 -7.53873e-55 2.24337e-48 -6.35452e-42 3.62477e-36 -2.03212e-29 2.84291