/*--------------------------------*- C++ -*----------------------------------*\
| =========                 |                                                 |
| \\      /  F ield         | OpenFOAM: The Open Source CFD Toolbox           |
|  \\    /   O peration     | Version:  2512                                  |
|   \\  /    A nd           | Website:  www.openfoam.com                      |
|    \\/     M anipulation  |                                                 |
\*---------------------------------------------------------------------------*/
FoamFile
{
    version     2.0;
    format      ascii;
    arch        "LSB;label=32;scalar=64";
    class       volVectorField;
    location    "2";
    object      U;
}
// * * * * * * * * * * * * * * * * * * * * * * * * * * * * * * * * * * * * * //

dimensions      [0 1 -1 0 0 0 0];

internalField nonuniform List<vector> 79633((0.00021817 3.4906e-05 0.0) (0.000183528 2.99424e-05 0.0) (0.000134133 1.54933e-05 0.0) (9.80416e-05 8.17581e-06 0.0) (7.55254e-05 4.76192e-06 0.0) (6.08267e-05 2.91636e-06 0.0) (5.056e-05 1.86663e-06 0.0) (4.30345e-05 1.26663e-06 0.0) (3.72769e-05 9.14056e-07 0.0) (3.2689e-05 6.97583e-07 0.0) (2.88985e-05 5.58956e-07 0.0) (2.56666e-05 4.6714e-07 0.0) (2.28336e-05 4.04995e-07 0.0) (2.02878e-05 3.6276e-07 0.0) (1.79475e-05 3.34701e-07 0.0) (1.57508e-05 3.17301e-07 0.0) (1.36496e-05 3.08202e-07 0.0) (1.16065e-05 3.05465e-07 0.0) (9.5954e-06 3.06824e-07 0.0) (7.60357e-06 3.08701e-07 0.0) (5.6394e-06 3.04713e-07 0.0) (3.7455e-06 2.83759e-07 0.0) (2.02009e-06 2.28413e-07 0.0) (6.42972e-07 1.15297e-07 0.0) (-1.42708e-07 -7.53525e-08 0.0) (-2.46725e-07 -2.71795e-07 0.0) (1.53246e-09 2.22487e-09 0.0) (1.15638e-09 8.56584e-10 0.0) (8.35499e-10 3.6257e-10 0.0) (4.71918e-10 1.30863e-10 0.0) (3.14552e-10 5.37353e-11 0.0) (2.44399e-10 2.44396e-11 0.0) (1.98905e-10 1.16403e-11 0.0) (1.75815e-10 5.98646e-12 0.0) (1.61867e-10 2.17462e-12 0.0) (1.59431e-10 2.53887e-13 0.0) (1.61899e-10 -2.71514e-12 0.0) (1.75802e-10 -5.42325e-12 0.0) (1.98939e-10 -1.22518e-11 0.0) (2.44209e-10 -2.36501e-11 0.0) (3.14379e-10 -5.44669e-11 0.0) (4.70771e-10 -1.29291e-10 0.0) (8.34439e-10 -3.63321e-10 0.0) (1.15343e-09 -8.53415e-10 0.0) (1.53084e-09 -2.22452e-09 0.0) (-7.62675e-08 8.84439e-08 0.0) (-3.2467e-07 7.91261e-08 0.0) (-5.02109e-07 4.95543e-08 0.0) (-5.7834e-07 2.3533e-08 0.0) (-5.82417e-07 6.91295e-09 0.0) (-5.51979e-07 -7.71847e-10 0.0) (-5.17729e-07 -1.98674e-09 0.0) (-5.00065e-07 4.76621e-10 0.0) (-5.0868e-07 3.98971e-09 0.0) (-5.42713e-07 6.00072e-09 0.0) (-5.90658e-07 3.81333e-09 0.0) (-6.2999e-07 -5.45459e-09 0.0) (-6.27675e-07 -2.42769e-08 0.0) (-5.44095e-07 -5.27773e-08 0.0) (-3.4957e-07 -8.45232e-08 0.0) (-8.04105e-08 -9.48594e-08 0.0) (2.20163e-09 3.15915e-09 0.0) (1.66216e-09 1.22469e-09 0.0) (1.1945e-09 5.29643e-10 0.0) (6.6182e-10 1.91872e-10 0.0) (4.33729e-10 7.9225e-11 0.0) (3.28808e-10 3.48935e-11 0.0) (2.6246e-10 1.69624e-11 0.0) (2.27473e-10 8.25302e-12 0.0) (2.07305e-10 3.4065e-12 0.0) (2.03195e-10 -6.45959e-14 0.0) (2.08139e-10 -3.75368e-12 0.0) (2.29221e-10 -8.47499e-12 0.0) (2.65286e-10 -1.75773e-11 0.0) (3.33016e-10 -3.55715e-11 0.0) (4.39772e-10 -8.08504e-11 0.0) (6.70326e-10 -1.93929e-10 0.0) (1.20734e-09 -5.32788e-10 0.0) (1.67597e-09 -1.22729e-09 0.0) (2.21674e-09 -3.17611e-09 0.0) (-2.54571e-07 2.83339e-07 0.0) (-2.96777e-07 1.05368e-07 0.0) (2.9029e-07 -7.73634e-08 0.0) (1.42725e-06 -1.87105e-07 0.0) (2.86923e-06 -2.38098e-07 0.0) (4.42354e-06 -2.51605e-07 0.0) (5.97317e-06 -2.4438e-07 0.0) (7.45481e-06 -2.27422e-07 0.0) (8.8388e-06 -2.06986e-07 0.0) (1.0114e-05 -1.86273e-07 0.0) (1.12798e-05 -1.6677e-07 0.0) (1.23412e-05 -1.49032e-07 0.0) (1.33052e-05 -1.33155e-07 0.0) (1.41795e-05 -1.19034e-07 0.0) (1.49716e-05 -1.06489e-07 0.0) (1.56886e-05 -9.53125e-08 0.0) (1.6337e-05 -8.53044e-08 0.0) (1.69223e-05 -7.62864e-08 0.0) (1.74495e-05 -6.81075e-08 0.0) (1.79229e-05 -6.06316e-08 0.0) (1.83461e-05 -5.37437e-08 0.0) (1.87223e-05 -4.73486e-08 0.0) (1.9054e-05 -4.13619e-08 0.0) (1.93437e-05 -3.57091e-08 0.0) (1.95931e-05 -3.03256e-08 0.0) (1.98035e-05 -2.51561e-08 0.0) (1.99763e-05 -2.01466e-08 0.0) (2.01122e-05 -1.52483e-08 0.0) (2.02118e-05 -1.04158e-08 0.0) (2.02753e-05 -5.60246e-09 0.0) (2.03026e-05 -7.61033e-10 0.0) (2.02934e-05 4.15504e-09 0.0) (2.02471e-05 9.19472e-09 0.0) (2.01625e-05 1.4413e-08 0.0) (2.00384e-05 1.98699e-08 0.0) (1.98731e-05 2.56297e-08 0.0) (1.96643e-05 3.17662e-08 0.0) (1.94095e-05 3.83649e-08 0.0) (1.91055e-05 4.552e-08 0.0) (1.87486e-05 5.33411e-08 0.0) (1.83345e-05 6.19576e-08 0.0) (1.7858e-05 7.15165e-08 0.0) (1.73133e-05 8.21829e-08 0.0) (1.66939e-05 9.41471e-08 0.0) (1.59922e-05 1.07625e-07 0.0) (1.51996e-05 1.22845e-07 0.0) (1.4307e-05 1.40027e-07 0.0) (1.33048e-05 1.59352e-07 0.0) (1.21832e-05 1.8089e-07 0.0) (1.09337e-05 2.04407e-07 0.0) (9.55127e-06 2.29115e-07 0.0) (8.03721e-06 2.53108e-07 0.0) (6.40577e-06 2.7244e-07 0.0) (4.69476e-06 2.79628e-07 0.0) (2.98082e-06 2.61971e-07 0.0) (1.40111e-06 2.00539e-07 0.0) (1.78344e-07 7.23117e-08 0.0) (-4.10716e-07 -1.36424e-07 0.0) (-2.91607e-07 -3.35676e-07 0.0) (6.17957e-09 8.56559e-09 0.0) (4.69973e-09 3.33915e-09 0.0) (3.3572e-09 1.53895e-09 0.0) (1.76762e-09 5.73758e-10 0.0) (1.11668e-09 2.284e-10 0.0) (7.99546e-10 9.93853e-11 0.0) (6.11082e-10 4.39442e-11 0.0) (5.06996e-10 2.21651e-11 0.0) (4.53289e-10 7.47905e-12 0.0) (4.38696e-10 6.07998e-13 0.0) (4.55853e-10 -1.0097e-11 0.0) (5.12285e-10 -2.1043e-11 0.0) (6.19839e-10 -4.79848e-11 0.0) (8.12456e-10 -9.89734e-11 0.0) (1.13566e-09 -2.37222e-10 0.0) (1.79285e-09 -5.75106e-10 0.0) (3.3967e-09 -1.55455e-09 0.0) (4.73797e-09 -3.32912e-09 0.0) (6.22246e-09 -8.62081e-09 0.0) (-2.98557e-07 3.4308e-07 0.0) (-4.34626e-07 1.43939e-07 0.0) (1.64528e-07 -7.06297e-08 0.0) (1.41903e-06 -2.03837e-07 0.0) (3.04845e-06 -2.68428e-07 0.0) (4.82552e-06 -2.88123e-07 0.0) (6.61018e-06 -2.82361e-07 0.0) (8.32429e-06 -2.64172e-07 0.0) (9.9295e-06 -2.41219e-07 0.0) (1.14115e-05 -2.17556e-07 0.0) (1.27694e-05 -1.95135e-07 0.0) (1.40086e-05 -1.74776e-07 0.0) (1.51382e-05 -1.56718e-07 0.0) (1.61684e-05 -1.40909e-07 0.0) (1.71099e-05 -1.27162e-07 0.0) (1.79722e-05 -1.15253e-07 0.0) (1.87645e-05 -1.04961e-07 0.0) (1.94952e-05 -9.60698e-08 0.0) (2.01715e-05 -8.83849e-08 0.0) (2.07998e-05 -8.17414e-08 0.0) (2.1386e-05 -7.59912e-08 0.0) (2.19351e-05 -7.10035e-08 0.0) (2.24514e-05 -6.66648e-08 0.0) (2.29387e-05 -6.28804e-08 0.0) (2.34002e-05 -5.95651e-08 0.0) (2.38388e-05 -5.66422e-08 0.0) (2.42568e-05 -5.40438e-08 0.0) (2.4656e-05 -5.17136e-08 0.0) (2.50382e-05 -4.95982e-08 0.0) (2.54046e-05 -4.76486e-08 0.0) (2.57562e-05 -4.58245e-08 0.0) (2.60937e-05 -4.40883e-08 0.0) (2.64176e-05 -4.24048e-08 0.0) (2.67283e-05 -4.07424e-08 0.0) (2.70257e-05 -3.9076e-08 0.0) (2.73099e-05 -3.73811e-08 0.0) (2.75805e-05 -3.56356e-08 0.0) (2.78372e-05 -3.38236e-08 0.0) (2.80796e-05 -3.19307e-08 0.0) (2.8307e-05 -2.99445e-08 0.0) (2.85189e-05 -2.78553e-08 0.0) (2.87146e-05 -2.56592e-08 0.0) (2.88933e-05 -2.33532e-08 0.0) (2.90543e-05 -2.09365e-08 0.0) (2.9197e-05 -1.8411e-08 0.0) (2.93205e-05 -1.57831e-08 0.0) (2.94243e-05 -1.3059e-08 0.0) (2.95077e-05 -1.02477e-08 0.0) (2.95703e-05 -7.36103e-09 0.0) (2.96114e-05 -4.41067e-09 0.0) (2.96308e-05 -1.40905e-09 0.0) (2.96281e-05 1.6293e-09 0.0) (2.96032e-05 4.68938e-09 0.0) (2.95558e-05 7.75784e-09 0.0) (2.9486e-05 1.0822e-08 0.0) (2.93939e-05 1.38685e-08 0.0) (2.92794e-05 1.68866e-08 0.0) (2.91429e-05 1.9868e-08 0.0) (2.89845e-05 2.28045e-08 0.0) (2.88045e-05 2.56918e-08 0.0) (2.86033e-05 2.85294e-08 0.0) (2.8381e-05 3.13188e-08 0.0) (2.81379e-05 3.40633e-08 0.0) (2.78744e-05 3.67727e-08 0.0) (2.75904e-05 3.94606e-08 0.0) (2.72861e-05 4.21417e-08 0.0) (2.69614e-05 4.48384e-08 0.0) (2.6616e-05 4.75783e-08 0.0) (2.62495e-05 5.03926e-08 0.0) (2.58612e-05 5.3316e-08 0.0) (2.54504e-05 5.63934e-08 0.0) (2.50156e-05 5.96763e-08 0.0) (2.45555e-05 6.32225e-08 0.0) (2.4068e-05 6.70959e-08 0.0) (2.35509e-05 7.13753e-08 0.0) (2.30012e-05 7.61501e-08 0.0) (2.24157e-05 8.15187e-08 0.0) (2.17904e-05 8.75995e-08 0.0) (2.11205e-05 9.45304e-08 0.0) (2.04005e-05 1.02467e-07 0.0) (1.96242e-05 1.11583e-07 0.0) (1.87847e-05 1.22083e-07 0.0) (1.78736e-05 1.34198e-07 0.0) (1.68818e-05 1.48169e-07 0.0) (1.57995e-05 1.64233e-07 0.0) (1.46163e-05 1.82592e-07 0.0) (1.33216e-05 2.03328e-07 0.0) (1.19061e-05 2.26217e-07 0.0) (1.03639e-05 2.50455e-07 0.0) (8.6958e-06 2.74071e-07 0.0) (6.91584e-06 2.92946e-07 0.0) (5.06284e-06 2.99227e-07 0.0) (3.21639e-06 2.79509e-07 0.0) (1.51995e-06 2.13764e-07 0.0) (2.07776e-07 7.737e-08 0.0) (-4.27451e-07 -1.44432e-07 0.0) (-3.06757e-07 -3.5692e-07 0.0) (7.72006e-09 1.06902e-08 0.0) (5.96372e-09 4.12339e-09 0.0) (4.21348e-09 1.95908e-09 0.0) (2.23209e-09 7.22054e-10 0.0) (1.38158e-09 2.9835e-10 0.0) (9.913e-10 1.21638e-10 0.0) (7.40745e-10 5.89988e-11 0.0) (6.13747e-10 2.57107e-11 0.0) (5.37371e-10 1.18915e-11 0.0) (5.21607e-10 -4.04408e-13 0.0) (5.35436e-10 -1.00659e-11 0.0) (6.09672e-10 -2.64144e-11 0.0) (7.33956e-10 -5.60366e-11 0.0) (9.80963e-10 -1.2154e-10 0.0) (1.366e-09 -2.9114e-10 0.0) (2.20894e-09 -7.1845e-10 0.0) (4.17634e-09 -1.94196e-09 0.0) (5.92704e-09 -4.12785e-09 0.0) (7.67659e-09 -1.06406e-08 0.0) (-2.89519e-07 3.37801e-07 0.0) (-4.35182e-07 1.43985e-07 0.0) (1.44638e-07 -6.70868e-08 0.0) (1.3702e-06 -1.98716e-07 0.0) (2.96649e-06 -2.62807e-07 0.0) (4.70969e-06 -2.82581e-07 0.0) (6.46151e-06 -2.77171e-07 0.0) (8.14454e-06 -2.59405e-07 0.0) (9.72057e-06 -2.36859e-07 0.0) (1.11752e-05 -2.13543e-07 0.0) (1.25073e-05 -1.91404e-07 0.0) (1.3722e-05 -1.71263e-07 0.0) (1.48281e-05 -1.53373e-07 0.0) (1.58358e-05 -1.37688e-07 0.0) (1.67554e-05 -1.24036e-07 0.0) (1.75965e-05 -1.12202e-07 0.0) (1.83684e-05 -1.01967e-07 0.0) (1.90792e-05 -9.31139e-08 0.0) (1.97352e-05 -8.54818e-08 0.0) (2.03441e-05 -7.89176e-08 0.0) (2.09124e-05 -7.32473e-08 0.0) (2.14443e-05 -6.83496e-08 0.0) (2.19445e-05 -6.41228e-08 0.0) (2.24169e-05 -6.04708e-08 0.0) (2.28643e-05 -5.73239e-08 0.0) (2.32904e-05 -5.46226e-08 0.0) (2.36985e-05 -5.22824e-08 0.0) (2.40902e-05 -5.02476e-08 0.0) (2.44674e-05 -4.84727e-08 0.0) (2.48317e-05 -4.69114e-08 0.0) (2.51841e-05 -4.55313e-08 0.0) (2.55262e-05 -4.43103e-08 0.0) (2.58594e-05 -4.31982e-08 0.0) (2.61839e-05 -4.21655e-08 0.0) (2.65002e-05 -4.11893e-08 0.0) (2.68087e-05 -4.02448e-08 0.0) (2.71092e-05 -3.93168e-08 0.0) (2.74023e-05 -3.84012e-08 0.0) (2.76883e-05 -3.74656e-08 0.0) (2.79666e-05 -3.64966e-08 0.0) (2.82372e-05 -3.54863e-08 0.0) (2.84998e-05 -3.44249e-08 0.0) (2.87536e-05 -3.33113e-08 0.0) (2.89988e-05 -3.21535e-08 0.0) (2.92353e-05 -3.09338e-08 0.0) (2.94624e-05 -2.96523e-08 0.0) (2.96797e-05 -2.83118e-08 0.0) (2.98867e-05 -2.69211e-08 0.0) (3.00833e-05 -2.54941e-08 0.0) (3.02694e-05 -2.40229e-08 0.0) (3.04447e-05 -2.2516e-08 0.0) (3.06088e-05 -2.09824e-08 0.0) (3.07617e-05 -1.94297e-08 0.0) (3.09031e-05 -1.78701e-08 0.0) (3.10331e-05 -1.63159e-08 0.0) (3.11519e-05 -1.47643e-08 0.0) (3.12594e-05 -1.32244e-08 0.0) (3.13558e-05 -1.17032e-08 0.0) (3.14411e-05 -1.0206e-08 0.0) (3.15154e-05 -8.74055e-09 0.0) (3.15791e-05 -7.31073e-09 0.0) (3.16324e-05 -5.91303e-09 0.0) (3.16756e-05 -4.55137e-09 0.0) (3.17088e-05 -3.22712e-09 0.0) (3.17324e-05 -1.94081e-09 0.0) (3.17465e-05 -6.94916e-10 0.0) (3.17516e-05 5.13482e-10 0.0) (3.17479e-05 1.68705e-09 0.0) (3.17357e-05 2.82336e-09 0.0) (3.17152e-05 3.92206e-09 0.0) (3.16868e-05 4.98177e-09 0.0) (3.16507e-05 5.99907e-09 0.0) (3.16074e-05 6.97647e-09 0.0) (3.15571e-05 7.90996e-09 0.0) (3.15002e-05 8.79272e-09 0.0) (3.14371e-05 9.61938e-09 0.0) (3.13684e-05 1.03829e-08 0.0) (3.12944e-05 1.10834e-08 0.0) (3.12156e-05 1.17104e-08 0.0) (3.11326e-05 1.22547e-08 0.0) (3.10461e-05 1.27093e-08 0.0) (3.09567e-05 1.30663e-08 0.0) (3.08653e-05 1.33184e-08 0.0) (3.07725e-05 1.34671e-08 0.0) (3.06789e-05 1.35014e-08 0.0) (3.05854e-05 1.34162e-08 0.0) (3.0493e-05 1.32099e-08 0.0) (3.04024e-05 1.28809e-08 0.0) (3.03145e-05 1.24308e-08 0.0) (3.02301e-05 1.18683e-08 0.0) (3.01498e-05 1.11914e-08 0.0) (3.00745e-05 1.04064e-08 0.0) (3.00048e-05 9.52273e-09 0.0) (2.99415e-05 8.55007e-09 0.0) (2.98851e-05 7.50187e-09 0.0) (2.9836e-05 6.39391e-09 0.0) (2.97945e-05 5.23578e-09 0.0) (2.97609e-05 4.04422e-09 0.0) (2.97355e-05 2.83619e-09 0.0) (2.97183e-05 1.62877e-09 0.0) (2.97091e-05 4.40792e-10 0.0) (2.97079e-05 -7.12334e-10 0.0) (2.97144e-05 -1.81533e-09 0.0) (2.97281e-05 -2.85093e-09 0.0) (2.97485e-05 -3.80395e-09 0.0) (2.97751e-05 -4.65986e-09 0.0) (2.98071e-05 -5.41078e-09 0.0) (2.9844e-05 -6.04443e-09 0.0) (2.98848e-05 -6.55213e-09 0.0) (2.99286e-05 -6.92845e-09 0.0) (2.99747e-05 -7.16972e-09 0.0) (3.00221e-05 -7.27549e-09 0.0) (3.00699e-05 -7.25167e-09 0.0) (3.01173e-05 -7.09769e-09 0.0) (3.01635e-05 -6.82077e-09 0.0) (3.02076e-05 -6.43042e-09 0.0) (3.0249e-05 -5.93769e-09 0.0) (3.02869e-05 -5.35726e-09 0.0) (3.03209e-05 -4.70556e-09 0.0) (3.03506e-05 -3.99432e-09 0.0) (3.03755e-05 -3.24214e-09 0.0) (3.03955e-05 -2.46718e-09 0.0) (3.04105e-05 -1.68753e-09 0.0) (3.04205e-05 -9.22857e-10 0.0) (3.04256e-05 -1.88806e-10 0.0) (3.0426e-05 4.99971e-10 0.0) (3.04222e-05 1.12689e-09 0.0) (3.04144e-05 1.67851e-09 0.0) (3.04033e-05 2.14319e-09 0.0) (3.03894e-05 2.51072e-09 0.0) (3.03733e-05 2.77747e-09 0.0) (3.03557e-05 2.93798e-09 0.0) (3.03373e-05 2.98997e-09 0.0) (3.03188e-05 2.93456e-09 0.0) (3.03008e-05 2.77542e-09 0.0) (3.0284e-05 2.52126e-09 0.0) (3.02689e-05 2.17862e-09 0.0) (3.02561e-05 1.75878e-09 0.0) (3.0246e-05 1.27495e-09 0.0) (3.0239e-05 7.41951e-10 0.0) (3.02353e-05 1.76597e-10 0.0) (3.0235e-05 -4.04143e-10 0.0) (3.02382e-05 -9.83224e-10 0.0) (3.02448e-05 -1.54166e-09 0.0) (3.02546e-05 -2.06115e-09 0.0) (3.02672e-05 -2.52366e-09 0.0) (3.02821e-05 -2.91168e-09 0.0) (3.02989e-05 -3.21178e-09 0.0) (3.03169e-05 -3.40759e-09 0.0) (3.03353e-05 -3.48633e-09 0.0) (3.03534e-05 -3.4376e-09 0.0) (3.03702e-05 -3.25298e-09 0.0) (3.03847e-05 -2.92707e-09 0.0) (3.03962e-05 -2.45856e-09 0.0) (3.04035e-05 -1.84293e-09 0.0) (3.04058e-05 -1.08354e-09 0.0) (3.04021e-05 -1.85282e-10 0.0) (3.03914e-05 8.44571e-10 0.0) (3.0373e-05 1.99506e-09 0.0) (3.0346e-05 3.25632e-09 0.0) (3.03098e-05 4.61778e-09 0.0) (3.02636e-05 6.06146e-09 0.0) (3.02071e-05 7.57067e-09 0.0) (3.01399e-05 9.1263e-09 0.0) (3.00617e-05 1.07169e-08 0.0) (2.99721e-05 1.23244e-08 0.0) (2.98712e-05 1.39277e-08 0.0) (2.9759e-05 1.55101e-08 0.0) (2.96358e-05 1.70547e-08 0.0) (2.95019e-05 1.85449e-08 0.0) (2.93577e-05 1.99784e-08 0.0) (2.92032e-05 2.1338e-08 0.0) (2.90392e-05 2.26105e-08 0.0) (2.88663e-05 2.37892e-08 0.0) (2.8685e-05 2.4867e-08 0.0) (2.84964e-05 2.58402e-08 0.0) (2.83008e-05 2.67209e-08 0.0) (2.80985e-05 2.75001e-08 0.0) (2.78906e-05 2.81777e-08 0.0) (2.76776e-05 2.87596e-08 0.0) (2.74601e-05 2.92507e-08 0.0) (2.7239e-05 2.96598e-08 0.0) (2.70145e-05 3.00096e-08 0.0) (2.67867e-05 3.02987e-08 0.0) (2.65563e-05 3.05359e-08 0.0) (2.63234e-05 3.07346e-08 0.0) (2.60884e-05 3.09058e-08 0.0) (2.58517e-05 3.10638e-08 0.0) (2.5613e-05 3.12345e-08 0.0) (2.53718e-05 3.14185e-08 0.0) (2.51284e-05 3.16253e-08 0.0) (2.48825e-05 3.18672e-08 0.0) (2.46342e-05 3.21588e-08 0.0) (2.43827e-05 3.25241e-08 0.0) (2.41272e-05 3.29628e-08 0.0) (2.38675e-05 3.34822e-08 0.0) (2.3603e-05 3.40939e-08 0.0) (2.33329e-05 3.48053e-08 0.0) (2.3057e-05 3.5627e-08 0.0) (2.2774e-05 3.6582e-08 0.0) (2.24826e-05 3.76678e-08 0.0) (2.21824e-05 3.88889e-08 0.0) (2.18723e-05 4.0256e-08 0.0) (2.15512e-05 4.17765e-08 0.0) (2.12185e-05 4.3462e-08 0.0) (2.08725e-05 4.53425e-08 0.0) (2.05115e-05 4.74203e-08 0.0) (2.01345e-05 4.97053e-08 0.0) (1.974e-05 5.22191e-08 0.0) (1.93264e-05 5.49824e-08 0.0) (1.88926e-05 5.80234e-08 0.0) (1.8436e-05 6.14015e-08 0.0) (1.79538e-05 6.51451e-08 0.0) (1.74441e-05 6.92951e-08 0.0) (1.69042e-05 7.39157e-08 0.0) (1.63311e-05 7.90771e-08 0.0) (1.57221e-05 8.48668e-08 0.0) (1.50727e-05 9.14272e-08 0.0) (1.43772e-05 9.88698e-08 0.0) (1.36316e-05 1.0732e-07 0.0) (1.28304e-05 1.16935e-07 0.0) (1.19684e-05 1.2788e-07 0.0) (1.10384e-05 1.40357e-07 0.0) (1.0032e-05 1.54429e-07 0.0) (8.94468e-06 1.6995e-07 0.0) (7.77261e-06 1.86419e-07 0.0) (6.51658e-06 2.02501e-07 0.0) (5.18847e-06 2.15341e-07 0.0) (3.81334e-06 2.19604e-07 0.0) (2.44456e-06 2.0559e-07 0.0) (1.18615e-06 1.5874e-07 0.0) (2.06056e-07 6.08707e-08 0.0) (-2.83066e-07 -1.00038e-07 0.0) (-2.1942e-07 -2.5602e-07 0.0) (5.44531e-09 7.57956e-09 0.0) (4.15553e-09 2.94128e-09 0.0) (2.96691e-09 1.35138e-09 0.0) (1.58166e-09 5.03919e-10 0.0) (1.00101e-09 2.04465e-10 0.0) (7.22784e-10 8.88519e-11 0.0) (5.51932e-10 4.07117e-11 0.0) (4.59477e-10 2.00512e-11 0.0) (4.08569e-10 7.63249e-12 0.0) (3.945e-10 9.2979e-13 0.0) (4.05321e-10 -7.81504e-12 0.0) (4.52508e-10 -1.75627e-11 0.0) (5.40474e-10 -4.0033e-11 0.0) (7.0541e-10 -8.35543e-11 0.0) (9.76815e-10 -2.00656e-10 0.0) (1.54623e-09 -4.91071e-10 0.0) (2.91438e-09 -1.3449e-09 0.0) (4.09477e-09 -2.92773e-09 0.0) (5.38549e-09 -7.52547e-09 0.0) (-1.03394e-07 1.29207e-07 0.0) (-2.60217e-07 7.53704e-08 0.0) (-1.84145e-07 4.95809e-09 0.0) (1.19977e-07 -4.42415e-08 0.0) (5.70728e-07 -7.20373e-08 0.0) (1.09512e-06 -8.41949e-08 0.0) (1.6418e-06 -8.65333e-08 0.0) (2.17952e-06 -8.33989e-08 0.0) (2.69057e-06 -7.75641e-08 0.0) (3.16538e-06 -7.06732e-08 0.0) (3.60128e-06 -6.36346e-08 0.0) (3.99841e-06 -5.68725e-08 0.0) (4.35765e-06 -5.06112e-08 0.0) (4.68139e-06 -4.49348e-08 0.0) (4.97243e-06 -3.98484e-08 0.0) (5.23332e-06 -3.53349e-08 0.0) (5.46737e-06 -3.13457e-08 0.0) (5.67746e-06 -2.78127e-08 0.0) (5.86575e-06 -2.46888e-08 0.0) (6.03447e-06 -2.19279e-08 0.0) (6.18567e-06 -1.94855e-08 0.0) (6.32098e-06 -1.73296e-08 0.0) (6.44229e-06 -1.54233e-08 0.0) (6.55117e-06 -1.37268e-08 0.0) (6.64873e-06 -1.22166e-08 0.0) (6.73614e-06 -1.0871e-08 0.0) (6.81433e-06 -9.67564e-09 0.0) (6.88435e-06 -8.61061e-09 0.0) (6.94709e-06 -7.6545e-09 0.0) (7.00319e-06 -6.79712e-09 0.0) (7.05328e-06 -6.0281e-09 0.0) (7.09798e-06 -5.33786e-09 0.0) (7.13775e-06 -4.72174e-09 0.0) (7.17314e-06 -4.1697e-09 0.0) (7.20461e-06 -3.67081e-09 0.0) (7.23252e-06 -3.22238e-09 0.0) (7.2572e-06 -2.82051e-09 0.0) (7.27899e-06 -2.46181e-09 0.0) (7.29818e-06 -2.14643e-09 0.0) (7.31509e-06 -1.86925e-09 0.0) (7.32999e-06 -1.62535e-09 0.0) (7.34313e-06 -1.41686e-09 0.0) (7.35475e-06 -1.2451e-09 0.0) (7.36513e-06 -1.1129e-09 0.0) (7.37451e-06 -1.02777e-09 0.0) (7.3832e-06 -9.95168e-10 0.0) (7.39154e-06 -1.02766e-09 0.0) (7.39989e-06 -1.15559e-09 0.0) (7.40871e-06 -1.42295e-09 0.0) (7.41853e-06 -1.8667e-09 0.0) (7.43064e-06 -2.5973e-09 0.0) (7.44819e-06 -4.41505e-09 0.0) (7.46877e-06 -8.36198e-09 0.0) (0.000299544 7.95146e-05 0.0) (0.00029075 9.21064e-05 0.0) (0.000253148 6.84341e-05 0.0) (0.000213193 4.73778e-05 0.0) (0.000180204 3.28508e-05 0.0) (0.000154068 2.32848e-05 0.0) (0.000133272 1.7056e-05 0.0) (0.00011653 1.2971e-05 0.0) (0.000102822 1.02377e-05 0.0) (9.13626e-05 8.36313e-06 0.0) (8.15747e-05 7.04692e-06 0.0) (7.30349e-05 6.1055e-06 0.0) (6.54305e-05 5.42482e-06 0.0) (5.85264e-05 4.93245e-06 0.0) (5.21419e-05 4.58099e-06 0.0) (4.61354e-05 4.3379e-06 0.0) (4.03953e-05 4.1788e-06 0.0) (3.48353e-05 4.08211e-06 0.0) (2.9394e-05 4.02376e-06 0.0) (2.40395e-05 3.97041e-06 0.0) (1.87809e-05 3.87048e-06 0.0) (1.36884e-05 3.64332e-06 0.0) (8.92575e-06 3.17306e-06 0.0) (4.78399e-06 2.32873e-06 0.0) (1.66361e-06 1.06041e-06 0.0) (-1.01441e-07 -2.77646e-07 0.0) (1.58427e-09 1.25269e-09 0.0) (1.55119e-09 8.92452e-10 0.0) (1.49072e-09 5.7694e-10 0.0) (1.25157e-09 3.34415e-10 0.0) (1.0562e-09 1.99382e-10 0.0) (9.09652e-10 1.18273e-10 0.0) (8.24462e-10 7.08274e-11 0.0) (7.53973e-10 3.82587e-11 0.0) (7.27978e-10 1.81364e-11 0.0) (7.09345e-10 -7.09287e-13 0.0) (7.27858e-10 -1.67299e-11 0.0) (7.54063e-10 -3.96981e-11 0.0) (8.23923e-10 -6.90808e-11 0.0) (9.09683e-10 -1.19797e-10 0.0) (1.05478e-09 -1.96808e-10 0.0) (1.25119e-09 -3.35936e-10 0.0) (1.48821e-09 -5.72742e-10 0.0) (1.55068e-09 -8.94124e-10 0.0) (1.58082e-09 -1.24955e-09 0.0) (-1.2206e-07 4.1456e-07 0.0) (-4.36231e-07 3.82966e-07 0.0) (-5.88738e-07 2.13104e-07 0.0) (-5.69988e-07 5.64349e-08 0.0) (-4.47143e-07 -3.86755e-08 0.0) (-2.92054e-07 -7.05566e-08 0.0) (-1.62051e-07 -5.45395e-08 0.0) (-9.55604e-08 -1.02558e-08 0.0) (-1.11163e-07 4.233e-08 0.0) (-2.07388e-07 8.32966e-08 0.0) (-3.62583e-07 9.22849e-08 0.0) (-5.34652e-07 4.91433e-08 0.0) (-6.61949e-07 -6.13212e-08 0.0) (-6.68735e-07 -2.35239e-07 0.0) (-4.86046e-07 -4.1829e-07 0.0) (-1.31695e-07 -4.47847e-07 0.0) (2.2054e-09 1.7282e-09 0.0) (2.17189e-09 1.26033e-09 0.0) (2.09907e-09 8.31584e-10 0.0) (1.75352e-09 4.92926e-10 0.0) (1.46373e-09 2.93436e-10 0.0) (1.25153e-09 1.75283e-10 0.0) (1.12052e-09 1.038e-10 0.0) (1.01856e-09 5.8108e-11 0.0) (9.7596e-10 2.61008e-11 0.0) (9.51872e-10 -9.40729e-13 0.0) (9.78049e-10 -2.75222e-11 0.0) (1.02282e-09 -6.02741e-11 0.0) (1.12696e-09 -1.05736e-10 0.0) (1.26034e-09 -1.78389e-10 0.0) (1.47471e-09 -2.96475e-10 0.0) (1.76654e-09 -4.97492e-10 0.0) (2.11243e-09 -8.34579e-10 0.0) (2.18541e-09 -1.26312e-09 0.0) (2.21862e-09 -1.72849e-09 0.0) (-1.57889e-07 4.71095e-07 0.0) (1.20377e-06 -7.11707e-07 0.0) (3.80917e-06 -1.88398e-06 0.0) (7.32734e-06 -2.64474e-06 0.0) (1.13311e-05 -3.01315e-06 0.0) (1.54906e-05 -3.10549e-06 0.0) (1.95956e-05 -3.03154e-06 0.0) (2.3526e-05 -2.86922e-06 0.0) (2.72207e-05 -2.667e-06 0.0) (3.06528e-05 -2.45289e-06 0.0) (3.38171e-05 -2.24206e-06 0.0) (3.6721e-05 -2.04198e-06 0.0) (3.93779e-05 -1.85576e-06 0.0) (4.18032e-05 -1.68418e-06 0.0) (4.40128e-05 -1.5268e-06 0.0) (4.60231e-05 -1.38251e-06 0.0) (4.78489e-05 -1.24999e-06 0.0) (4.95034e-05 -1.12788e-06 0.0) (5.09984e-05 -1.0149e-06 0.0) (5.23448e-05 -9.09786e-07 0.0) (5.35516e-05 -8.11453e-07 0.0) (5.46266e-05 -7.1891e-07 0.0) (5.55768e-05 -6.31239e-07 0.0) (5.6408e-05 -5.47612e-07 0.0) (5.71249e-05 -4.67295e-07 0.0) (5.77311e-05 -3.89611e-07 0.0) (5.82299e-05 -3.13895e-07 0.0) (5.86233e-05 -2.39543e-07 0.0) (5.89127e-05 -1.65969e-07 0.0) (5.90988e-05 -9.25706e-08 0.0) (5.91813e-05 -1.87396e-08 0.0) (5.91592e-05 5.61294e-08 0.0) (5.90307e-05 1.32668e-07 0.0) (5.87932e-05 2.11575e-07 0.0) (5.84429e-05 2.93601e-07 0.0) (5.79752e-05 3.79542e-07 0.0) (5.73845e-05 4.70268e-07 0.0) (5.66638e-05 5.66785e-07 0.0) (5.58047e-05 6.70161e-07 0.0) (5.4798e-05 7.8158e-07 0.0) (5.36322e-05 9.02381e-07 0.0) (5.22943e-05 1.03403e-06 0.0) (5.07699e-05 1.17809e-06 0.0) (4.90427e-05 1.33617e-06 0.0) (4.70943e-05 1.50996e-06 0.0) (4.49044e-05 1.701e-06 0.0) (4.2452e-05 1.91038e-06 0.0) (3.97162e-05 2.13833e-06 0.0) (3.66756e-05 2.38348e-06 0.0) (3.33141e-05 2.6413e-06 0.0) (2.96237e-05 2.90185e-06 0.0) (2.56109e-05 3.14608e-06 0.0) (2.13083e-05 3.33986e-06 0.0) (1.6793e-05 3.42551e-06 0.0) (1.22108e-05 3.31299e-06 0.0) (7.80807e-06 2.87865e-06 0.0) (3.96932e-06 1.99749e-06 0.0) (1.18141e-06 6.6577e-07 0.0) (-2.05298e-07 -6.35178e-07 0.0) (5.77298e-09 4.33724e-09 0.0) (5.74331e-09 3.3459e-09 0.0) (5.62244e-09 2.40047e-09 0.0) (4.63926e-09 1.46101e-09 0.0) (3.78069e-09 8.72729e-10 0.0) (3.17923e-09 5.10106e-10 0.0) (2.76376e-09 3.04676e-10 0.0) (2.48153e-09 1.64267e-10 0.0) (2.33546e-09 7.63991e-11 0.0) (2.28394e-09 -5.17689e-12 0.0) (2.34163e-09 -7.60427e-11 0.0) (2.49492e-09 -1.76011e-10 0.0) (2.78261e-09 -3.04908e-10 0.0) (3.20683e-09 -5.26487e-10 0.0) (3.81174e-09 -8.73654e-10 0.0) (4.67827e-09 -1.48401e-09 0.0) (5.65703e-09 -2.39331e-09 0.0) (5.78245e-09 -3.36105e-09 0.0) (5.80549e-09 -4.31894e-09 0.0) (-2.14251e-07 6.60764e-07 0.0) (1.19752e-06 -6.6906e-07 0.0) (4.06239e-06 -2.04562e-06 0.0) (8.02256e-06 -2.96535e-06 0.0) (1.2584e-05 -3.42942e-06 0.0) (1.73557e-05 -3.5652e-06 0.0) (2.20875e-05 -3.49907e-06 0.0) (2.66317e-05 -3.32305e-06 0.0) (3.09108e-05 -3.0961e-06 0.0) (3.48923e-05 -2.85315e-06 0.0) (3.8571e-05 -2.61369e-06 0.0) (4.19559e-05 -2.38793e-06 0.0) (4.50648e-05 -2.18056e-06 0.0) (4.79202e-05 -1.99305e-06 0.0) (5.05459e-05 -1.82518e-06 0.0) (5.29642e-05 -1.67588e-06 0.0) (5.51968e-05 -1.54369e-06 0.0) (5.72644e-05 -1.42689e-06 0.0) (5.9185e-05 -1.32386e-06 0.0) (6.09749e-05 -1.23304e-06 0.0) (6.2649e-05 -1.15294e-06 0.0) (6.42206e-05 -1.0822e-06 0.0) (6.57008e-05 -1.01962e-06 0.0) (6.70995e-05 -9.64104e-07 0.0) (6.84255e-05 -9.14636e-07 0.0) (6.96863e-05 -8.70306e-07 0.0) (7.08882e-05 -8.30305e-07 0.0) (7.20362e-05 -7.93895e-07 0.0) (7.3135e-05 -7.60395e-07 0.0) (7.41879e-05 -7.29195e-07 0.0) (7.51976e-05 -6.99747e-07 0.0) (7.61663e-05 -6.71544e-07 0.0) (7.70953e-05 -6.44124e-07 0.0) (7.79854e-05 -6.17082e-07 0.0) (7.88368e-05 -5.90056e-07 0.0) (7.96494e-05 -5.62715e-07 0.0) (8.04225e-05 -5.3478e-07 0.0) (8.1155e-05 -5.06015e-07 0.0) (8.18459e-05 -4.76216e-07 0.0) (8.24936e-05 -4.45217e-07 0.0) (8.30964e-05 -4.12902e-07 0.0) (8.36524e-05 -3.79195e-07 0.0) (8.41596e-05 -3.44047e-07 0.0) (8.46162e-05 -3.07446e-07 0.0) (8.50202e-05 -2.69423e-07 0.0) (8.53696e-05 -2.30044e-07 0.0) (8.56628e-05 -1.89386e-07 0.0) (8.58979e-05 -1.4757e-07 0.0) (8.60735e-05 -1.04739e-07 0.0) (8.61884e-05 -6.10418e-08 0.0) (8.62414e-05 -1.66401e-08 0.0) (8.62317e-05 2.8283e-08 0.0) (8.61587e-05 7.35398e-08 0.0) (8.60221e-05 1.1896e-07 0.0) (8.58217e-05 1.64381e-07 0.0) (8.55576e-05 2.09639e-07 0.0) (8.52301e-05 2.54592e-07 0.0) (8.48397e-05 2.99139e-07 0.0) (8.43869e-05 3.43186e-07 0.0) (8.38726e-05 3.86677e-07 0.0) (8.32974e-05 4.29604e-07 0.0) (8.26619e-05 4.72e-07 0.0) (8.19669e-05 5.13928e-07 0.0) (8.1213e-05 5.55505e-07 0.0) (8.04003e-05 5.96916e-07 0.0) (7.95291e-05 6.38378e-07 0.0) (7.85991e-05 6.80174e-07 0.0) (7.76095e-05 7.22655e-07 0.0) (7.65591e-05 7.66239e-07 0.0) (7.5446e-05 8.11399e-07 0.0) (7.42681e-05 8.58682e-07 0.0) (7.30218e-05 9.08731e-07 0.0) (7.17029e-05 9.62272e-07 0.0) (7.03064e-05 1.02011e-06 0.0) (6.88261e-05 1.08315e-06 0.0) (6.72543e-05 1.15245e-06 0.0) (6.55821e-05 1.22914e-06 0.0) (6.37994e-05 1.3145e-06 0.0) (6.1894e-05 1.40994e-06 0.0) (5.98516e-05 1.51705e-06 0.0) (5.76568e-05 1.63749e-06 0.0) (5.52921e-05 1.77302e-06 0.0) (5.27374e-05 1.92543e-06 0.0) (4.9971e-05 2.09642e-06 0.0) (4.697e-05 2.2872e-06 0.0) (4.37118e-05 2.49811e-06 0.0) (4.01728e-05 2.72786e-06 0.0) (3.63351e-05 2.97187e-06 0.0) (3.21889e-05 3.21995e-06 0.0) (2.77392e-05 3.45237e-06 0.0) (2.30183e-05 3.63352e-06 0.0) (1.81049e-05 3.70298e-06 0.0) (1.31493e-05 3.56597e-06 0.0) (8.40796e-06 3.09165e-06 0.0) (4.28342e-06 2.14698e-06 0.0) (1.2866e-06 7.25717e-07 0.0) (-2.13653e-07 -6.64816e-07 0.0) (7.20877e-09 5.26948e-09 0.0) (7.09328e-09 4.15064e-09 0.0) (7.04736e-09 3.01599e-09 0.0) (5.73493e-09 1.87088e-09 0.0) (4.7189e-09 1.1021e-09 0.0) (3.89997e-09 6.57156e-10 0.0) (3.41417e-09 3.83544e-10 0.0) (3.00921e-09 2.18767e-10 0.0) (2.85457e-09 9.63128e-11 0.0) (2.74658e-09 3.76213e-12 0.0) (2.84963e-09 -9.6128e-11 0.0) (2.99859e-09 -2.10031e-10 0.0) (3.39875e-09 -3.82444e-10 0.0) (3.87744e-09 -6.44115e-10 0.0) (4.69203e-09 -1.09889e-09 0.0) (5.70042e-09 -1.85025e-09 0.0) (7.01767e-09 -3.01617e-09 0.0) (7.06029e-09 -4.13736e-09 0.0) (7.18034e-09 -5.28365e-09 0.0) (-2.12917e-07 6.6102e-07 0.0) (1.1571e-06 -6.40126e-07 0.0) (3.95679e-06 -1.99485e-06 0.0) (7.8362e-06 -2.90272e-06 0.0) (1.231e-05 -3.36254e-06 0.0) (1.69935e-05 -3.49867e-06 0.0) (2.16393e-05 -3.4352e-06 0.0) (2.61015e-05 -3.26269e-06 0.0) (3.03025e-05 -3.03932e-06 0.0) (3.42101e-05 -2.79962e-06 0.0) (3.78184e-05 -2.56298e-06 0.0) (4.1136e-05 -2.33957e-06 0.0) (4.41802e-05 -2.13412e-06 0.0) (4.69732e-05 -1.94822e-06 0.0) (4.95384e-05 -1.7817e-06 0.0) (5.18981e-05 -1.63362e-06 0.0) (5.40742e-05 -1.50251e-06 0.0) (5.60872e-05 -1.3868e-06 0.0) (5.79522e-05 -1.28511e-06 0.0) (5.96892e-05 -1.19576e-06 0.0) (6.1315e-05 -1.11724e-06 0.0) (6.28407e-05 -1.0484e-06 0.0) (6.4278e-05 -9.88088e-07 0.0) (6.56377e-05 -9.35252e-07 0.0) (6.69271e-05 -8.89028e-07 0.0) (6.81566e-05 -8.48493e-07 0.0) (6.93346e-05 -8.1283e-07 0.0) (7.04657e-05 -7.81403e-07 0.0) (7.15552e-05 -7.5359e-07 0.0) (7.26076e-05 -7.28825e-07 0.0) (7.36251e-05 -7.0663e-07 0.0) (7.46126e-05 -6.86513e-07 0.0) (7.5574e-05 -6.68013e-07 0.0) (7.65097e-05 -6.50773e-07 0.0) (7.74213e-05 -6.34448e-07 0.0) (7.83098e-05 -6.1873e-07 0.0) (7.91748e-05 -6.03368e-07 0.0) (8.00178e-05 -5.88114e-07 0.0) (8.084e-05 -5.7272e-07 0.0) (8.16399e-05 -5.5703e-07 0.0) (8.2417e-05 -5.40901e-07 0.0) (8.31708e-05 -5.24219e-07 0.0) (8.38993e-05 -5.06928e-07 0.0) (8.46028e-05 -4.88965e-07 0.0) (8.52814e-05 -4.70258e-07 0.0) (8.59329e-05 -4.50828e-07 0.0) (8.65566e-05 -4.30698e-07 0.0) (8.71505e-05 -4.09946e-07 0.0) (8.77149e-05 -3.88613e-07 0.0) (8.82497e-05 -3.66731e-07 0.0) (8.87534e-05 -3.44417e-07 0.0) (8.92255e-05 -3.2177e-07 0.0) (8.96657e-05 -2.98891e-07 0.0) (9.00731e-05 -2.75921e-07 0.0) (9.04483e-05 -2.52934e-07 0.0) (9.07918e-05 -2.29988e-07 0.0) (9.11032e-05 -2.07207e-07 0.0) (9.13828e-05 -1.84678e-07 0.0) (9.16309e-05 -1.62473e-07 0.0) (9.18478e-05 -1.4069e-07 0.0) (9.20344e-05 -1.19349e-07 0.0) (9.21916e-05 -9.84581e-08 0.0) (9.23198e-05 -7.80782e-08 0.0) (9.24197e-05 -5.82329e-08 0.0) (9.24919e-05 -3.89378e-08 0.0) (9.25374e-05 -2.02315e-08 0.0) (9.2557e-05 -2.08984e-09 0.0) (9.25514e-05 1.55042e-08 0.0) (9.25215e-05 3.25137e-08 0.0) (9.2468e-05 4.89234e-08 0.0) (9.2392e-05 6.47116e-08 0.0) (9.22943e-05 7.98268e-08 0.0) (9.21759e-05 9.42599e-08 0.0) (9.20376e-05 1.07978e-07 0.0) (9.18807e-05 1.20901e-07 0.0) (9.17062e-05 1.32958e-07 0.0) (9.15158e-05 1.44055e-07 0.0) (9.13107e-05 1.54135e-07 0.0) (9.10919e-05 1.63114e-07 0.0) (9.08615e-05 1.70885e-07 0.0) (9.06211e-05 1.77354e-07 0.0) (9.03726e-05 1.82434e-07 0.0) (9.01185e-05 1.86037e-07 0.0) (8.98604e-05 1.88111e-07 0.0) (8.96002e-05 1.88589e-07 0.0) (8.93403e-05 1.87425e-07 0.0) (8.90832e-05 1.84593e-07 0.0) (8.88311e-05 1.80092e-07 0.0) (8.85867e-05 1.7395e-07 0.0) (8.83517e-05 1.66217e-07 0.0) (8.81281e-05 1.56937e-07 0.0) (8.79182e-05 1.46213e-07 0.0) (8.7724e-05 1.34164e-07 0.0) (8.75471e-05 1.20928e-07 0.0) (8.73893e-05 1.06688e-07 0.0) (8.72516e-05 9.16117e-08 0.0) (8.71348e-05 7.5868e-08 0.0) (8.704e-05 5.96879e-08 0.0) (8.69674e-05 4.32919e-08 0.0) (8.69174e-05 2.69059e-08 0.0) (8.68897e-05 1.07816e-08 0.0) (8.68838e-05 -4.87924e-09 0.0) (8.6899e-05 -1.98763e-08 0.0) (8.69341e-05 -3.39774e-08 0.0) (8.69878e-05 -4.69868e-08 0.0) (8.70585e-05 -5.870