/*--------------------------------*- C++ -*----------------------------------*\
| =========                 |                                                 |
| \\      /  F ield         | OpenFOAM: The Open Source CFD Toolbox           |
|  \\    /   O peration     | Version:  2512                                  |
|   \\  /    A nd           | Website:  www.openfoam.com                      |
|    \\/     M anipulation  |                                                 |
\*---------------------------------------------------------------------------*/
FoamFile
{
    version     2.0;
    format      ascii;
    arch        "LSB;label=32;scalar=64";
    class       volVectorField;
    location    "2";
    object      U;
}
// * * * * * * * * * * * * * * * * * * * * * * * * * * * * * * * * * * * * * //

dimensions      [0 1 -1 0 0 0 0];

internalField nonuniform List<vector> 79633((0.000218231 3.48452e-05 0.0) (0.000183581 2.99243e-05 0.0) (0.000133906 1.55417e-05 0.0) (9.72445e-05 8.28361e-06 0.0) (7.3886e-05 4.9206e-06 0.0) (5.80972e-05 3.12077e-06 0.0) (4.65082e-05 2.11482e-06 0.0) (3.74368e-05 1.55879e-06 0.0) (2.99162e-05 1.25062e-06 0.0) (2.33639e-05 1.07554e-06 0.0) (1.74503e-05 9.65164e-07 0.0) (1.20401e-05 8.66919e-07 0.0) (7.19214e-06 7.25481e-07 0.0) (3.20131e-06 4.72934e-07 0.0) (5.69604e-07 3.99823e-08 0.0) (-4.23426e-07 -4.50958e-07 0.0) (4.56306e-12 7.67687e-12 0.0) (3.39141e-12 2.03666e-12 0.0) (2.58766e-12 4.71302e-13 0.0) (1.77222e-12 9.10817e-14 0.0) (1.48068e-12 2.32668e-14 0.0) (1.37269e-12 4.01545e-15 0.0) (1.32494e-12 -3.8591e-15 0.0) (1.30718e-12 -5.69227e-15 0.0) (1.30311e-12 -4.17989e-15 0.0) (1.30218e-12 -1.3074e-15 0.0) (1.29926e-12 1.9032e-15 0.0) (1.29608e-12 4.33296e-15 0.0) (1.29917e-12 4.58418e-15 0.0) (1.32017e-12 3.20216e-16 0.0) (1.38146e-12 -1.22275e-14 0.0) (1.582e-12 -6.27488e-14 0.0) (2.21338e-12 -3.77652e-13 0.0) (2.86056e-12 -1.73148e-12 0.0) (3.84792e-12 -6.64886e-12 0.0) (-9.56924e-08 1.03964e-07 0.0) (-3.0769e-07 7.70507e-08 0.0) (-3.95378e-07 3.25885e-08 0.0) (-3.37503e-07 -1.62802e-09 0.0) (-1.83613e-07 -2.18486e-08 0.0) (1.3011e-08 -3.0232e-08 0.0) (2.11078e-07 -3.01786e-08 0.0) (3.81508e-07 -2.46914e-08 0.0) (5.05307e-07 -1.5972e-08 0.0) (5.71151e-07 -5.53646e-09 0.0) (5.73518e-07 5.5005e-09 0.0) (5.11798e-07 1.61398e-08 0.0) (3.90455e-07 2.5228e-08 0.0) (2.19972e-07 3.11711e-08 0.0) (1.89854e-08 3.16273e-08 0.0) (-1.8303e-07 2.33766e-08 0.0) (-3.43304e-07 2.73495e-09 0.0) (-4.05902e-07 -3.27414e-08 0.0) (-3.17769e-07 -7.93634e-08 0.0) (-9.94657e-08 -1.08059e-07 0.0) (3.02605e-12 5.22462e-12 0.0) (2.24913e-12 1.36131e-12 0.0) (1.73711e-12 2.9824e-13 0.0) (1.23425e-12 5.086e-14 0.0) (1.06862e-12 1.10294e-14 0.0) (1.01269e-12 8.40221e-16 0.0) (9.89661e-13 -3.06958e-15 0.0) (9.82383e-13 -3.39298e-15 0.0) (9.81303e-13 -1.93449e-15 0.0) (9.80598e-13 3.22482e-16 0.0) (9.77885e-13 2.44196e-15 0.0) (9.75912e-13 3.84823e-15 0.0) (9.80812e-13 3.25458e-15 0.0) (1.00206e-12 -6.54548e-16 0.0) (1.05593e-12 -1.05764e-14 0.0) (1.21618e-12 -4.87804e-14 0.0) (1.70618e-12 -2.90994e-13 0.0) (2.20631e-12 -1.33835e-12 0.0) (2.96944e-12 -5.14495e-12 0.0) (-7.00826e-08 7.10722e-08 0.0) (-3.47813e-07 6.92104e-08 0.0) (-5.36349e-07 2.75237e-08 0.0) (-5.37281e-07 -2.71331e-08 0.0) (-3.49408e-07 -6.92906e-08 0.0) (-7.05413e-08 -7.13707e-08 0.0) (7.87179e-12 1.36928e-11 0.0) (5.85834e-12 3.55675e-12 0.0) (4.53579e-12 7.6913e-13 0.0) (3.25585e-12 1.23743e-13 0.0) (2.85558e-12 2.23626e-14 0.0) (2.73777e-12 -2.36132e-15 0.0) (2.6958e-12 -1.02754e-14 0.0) (2.69011e-12 -9.62997e-15 0.0) (2.69344e-12 -4.90971e-15 0.0) (2.6982e-12 1.34618e-15 0.0) (2.69506e-12 6.96534e-15 0.0) (2.69684e-12 1.09435e-14 0.0) (2.71513e-12 9.2488e-15 0.0) (2.78096e-12 -1.64179e-15 0.0) (2.93908e-12 -3.17592e-14 0.0) (3.4117e-12 -1.45172e-13 0.0) (4.83212e-12 -8.39624e-13 0.0) (6.27513e-12 -3.79752e-12 0.0) (8.43644e-12 -1.45325e-11 0.0) (-3.58027e-07 3.8799e-07 0.0) (-4.15264e-07 1.43501e-07 0.0) (3.79044e-07 -1.06116e-07 0.0) (1.91886e-06 -2.55232e-07 0.0) (3.86673e-06 -3.23525e-07 0.0) (5.9563e-06 -3.40108e-07 0.0) (8.02617e-06 -3.28137e-07 0.0) (9.99028e-06 -3.02803e-07 0.0) (1.18077e-05 -2.72809e-07 0.0) (1.34646e-05 -2.42671e-07 0.0) (1.49621e-05 -2.14468e-07 0.0) (1.6309e-05 -1.88989e-07 0.0) (1.75166e-05 -1.66389e-07 0.0) (1.85977e-05 -1.46535e-07 0.0) (1.95649e-05 -1.29162e-07 0.0) (2.04301e-05 -1.13975e-07 0.0) (2.12042e-05 -1.00689e-07 0.0) (2.18966e-05 -8.90534e-08 0.0) (2.25164e-05 -7.88403e-08 0.0) (2.30711e-05 -6.98544e-08 0.0) (2.35677e-05 -6.19328e-08 0.0) (2.40124e-05 -5.49344e-08 0.0) (2.44105e-05 -4.87368e-08 0.0) (2.47668e-05 -4.32375e-08 0.0) (2.50857e-05 -3.83513e-08 0.0) (2.53709e-05 -3.40035e-08 0.0) (2.56259e-05 -3.01286e-08 0.0) (2.58537e-05 -2.66713e-08 0.0) (2.6057e-05 -2.35848e-08 0.0) (2.62383e-05 -2.08274e-08 0.0) (2.63998e-05 -1.83623e-08 0.0) (2.65433e-05 -1.61585e-08 0.0) (2.66708e-05 -1.41884e-08 0.0) (2.67838e-05 -1.24269e-08 0.0) (2.68838e-05 -1.08522e-08 0.0) (2.6972e-05 -9.44564e-09 0.0) (2.70497e-05 -8.18987e-09 0.0) (2.71178e-05 -7.06951e-09 0.0) (2.71775e-05 -6.07114e-09 0.0) (2.72295e-05 -5.18259e-09 0.0) (2.72747e-05 -4.39278e-09 0.0) (2.73137e-05 -3.69177e-09 0.0) (2.73473e-05 -3.07075e-09 0.0) (2.73759e-05 -2.52182e-09 0.0) (2.74002e-05 -2.0377e-09 0.0) (2.74206e-05 -1.61179e-09 0.0) (2.74376e-05 -1.23818e-09 0.0) (2.74515e-05 -9.11622e-10 0.0) (2.74628e-05 -6.27209e-10 0.0) (2.74716e-05 -3.80469e-10 0.0) (2.74784e-05 -1.67556e-10 0.0) (2.74834e-05 1.50532e-11 0.0) (2.74867e-05 1.70689e-10 0.0) (2.74887e-05 3.02419e-10 0.0) (2.74895e-05 4.12795e-10 0.0) (2.74892e-05 5.04141e-10 0.0) (2.74881e-05 5.78731e-10 0.0) (2.74863e-05 6.38662e-10 0.0) (2.74838e-05 6.85491e-10 0.0) (2.74808e-05 7.20846e-10 0.0) (2.74774e-05 7.4633e-10 0.0) (2.74737e-05 7.63142e-10 0.0) (2.74697e-05 7.72319e-10 0.0) (2.74655e-05 7.74972e-10 0.0) (2.74612e-05 7.72183e-10 0.0) (2.74568e-05 7.64603e-10 0.0) (2.74523e-05 7.53009e-10 0.0) (2.74478e-05 7.382e-10 0.0) (2.74434e-05 7.20668e-10 0.0) (2.7439e-05 7.00815e-10 0.0) (2.74346e-05 6.79174e-10 0.0) (2.74303e-05 6.56291e-10 0.0) (2.74262e-05 6.32422e-10 0.0) (2.74221e-05 6.07753e-10 0.0) (2.74182e-05 5.82633e-10 0.0) (2.74144e-05 5.57413e-10 0.0) (2.74108e-05 5.32106e-10 0.0) (2.74073e-05 5.06951e-10 0.0) (2.74039e-05 4.82221e-10 0.0) (2.74007e-05 4.57937e-10 0.0) (2.73976e-05 4.34078e-10 0.0) (2.73947e-05 4.10801e-10 0.0) (2.73919e-05 3.883e-10 0.0) (2.73892e-05 3.66545e-10 0.0) (2.73867e-05 3.45468e-10 0.0) (2.73843e-05 3.25174e-10 0.0) (2.73821e-05 3.05775e-10 0.0) (2.738e-05 2.87105e-10 0.0) (2.7378e-05 2.69265e-10 0.0) (2.73761e-05 2.52369e-10 0.0) (2.73743e-05 2.36292e-10 0.0) (2.73726e-05 2.20894e-10 0.0) (2.73711e-05 2.06261e-10 0.0) (2.73696e-05 1.92493e-10 0.0) (2.73682e-05 1.79398e-10 0.0) (2.73669e-05 1.6703e-10 0.0) (2.73657e-05 1.55467e-10 0.0) (2.73646e-05 1.44577e-10 0.0) (2.73636e-05 1.34224e-10 0.0) (2.73626e-05 1.24481e-10 0.0) (2.73617e-05 1.15434e-10 0.0) (2.73608e-05 1.0696e-10 0.0) (2.736e-05 9.89248e-11 0.0) (2.73593e-05 9.13962e-11 0.0) (2.73586e-05 8.44409e-11 0.0) (2.7358e-05 7.78635e-11 0.0) (2.73574e-05 7.1728e-11 0.0) (2.73569e-05 6.6116e-11 0.0) (2.73564e-05 6.08971e-11 0.0) (2.73559e-05 5.59394e-11 0.0) (2.73555e-05 5.13206e-11 0.0) (2.73551e-05 4.71298e-11 0.0) (2.73548e-05 4.32506e-11 0.0) (2.73544e-05 3.95579e-11 0.0) (2.73541e-05 3.61293e-11 0.0) (2.73538e-05 3.30346e-11 0.0) (2.73536e-05 3.00848e-11 0.0) (2.73534e-05 2.7352e-11 0.0) (2.73531e-05 2.49281e-11 0.0) (2.73529e-05 2.27028e-11 0.0) (2.73528e-05 2.05634e-11 0.0) (2.73526e-05 1.85933e-11 0.0) (2.73524e-05 1.68571e-11 0.0) (2.73523e-05 1.51655e-11 0.0) (2.73522e-05 1.3602e-11 0.0) (2.73521e-05 1.22701e-11 0.0) (2.7352e-05 1.10619e-11 0.0) (2.73519e-05 9.86326e-12 0.0) (2.73518e-05 8.76319e-12 0.0) (2.73517e-05 7.85505e-12 0.0) (2.73517e-05 7.03265e-12 0.0) (2.73516e-05 6.19075e-12 0.0) (2.73515e-05 5.42794e-12 0.0) (2.73515e-05 4.82336e-12 0.0) (2.73514e-05 4.19209e-12 0.0) (2.73514e-05 3.61119e-12 0.0) (2.73514e-05 3.17949e-12 0.0) (2.73513e-05 2.79424e-12 0.0) (2.73513e-05 2.35128e-12 0.0) (2.73513e-05 1.94693e-12 0.0) (2.73513e-05 1.679e-12 0.0) (2.73513e-05 1.44518e-12 0.0) (2.73512e-05 1.1415e-12 0.0) (2.73512e-05 8.65289e-13 0.0) (2.73512e-05 6.97643e-13 0.0) (2.73512e-05 4.63688e-13 0.0) (2.73512e-05 2.52728e-13 0.0) (2.73512e-05 1.67948e-13 0.0) (2.73512e-05 1.0324e-13 0.0) (2.73512e-05 -4.78819e-14 0.0) (2.73512e-05 -1.83612e-13 0.0) (2.73512e-05 -2.1719e-13 0.0) (2.73512e-05 -3.2516e-13 0.0) (2.73512e-05 -4.25358e-13 0.0) (2.73512e-05 -4.17338e-13 0.0) (2.73512e-05 -4.00605e-13 0.0) (2.73512e-05 -4.74918e-13 0.0) (2.73512e-05 -5.42648e-13 0.0) (2.73512e-05 -5.07846e-13 0.0) (2.73512e-05 -4.7337e-13 0.0) (2.73512e-05 -5.38257e-13 0.0) (2.73512e-05 -5.96239e-13 0.0) (2.73512e-05 -5.60145e-13 0.0) (2.73512e-05 -6.06168e-13 0.0) (2.73512e-05 -6.47453e-13 0.0) (2.73512e-05 -5.78146e-13 0.0) (2.73512e-05 -4.99547e-13 0.0) (2.73512e-05 -5.18833e-13 0.0) (2.73512e-05 -5.43647e-13 0.0) (2.73512e-05 -4.77127e-13 0.0) (2.73512e-05 -4.16364e-13 0.0) (2.73512e-05 -4.5408e-13 0.0) (2.73512e-05 -4.81434e-13 0.0) (2.73512e-05 -4.13761e-13 0.0) (2.73512e-05 -4.32693e-13 0.0) (2.73512e-05 -4.57597e-13 0.0) (2.73512e-05 -3.86646e-13 0.0) (2.73512e-05 -3.18872e-13 0.0) (2.73512e-05 -3.51143e-13 0.0) (2.73512e-05 -3.76154e-13 0.0) (2.73512e-05 -3.07173e-13 0.0) (2.73512e-05 -3.22721e-13 0.0) (2.73512e-05 -3.41658e-13 0.0) (2.73512e-05 -2.64581e-13 0.0) (2.73512e-05 -1.93278e-13 0.0) (2.73512e-05 -2.26357e-13 0.0) (2.73512e-05 -2.60202e-13 0.0) (2.73512e-05 -1.93854e-13 0.0) (2.73512e-05 -1.28768e-13 0.0) (2.73513e-05 -1.57843e-13 0.0) (2.73513e-05 -1.98739e-13 0.0) (2.73513e-05 -3.76609e-13 0.0) (2.73513e-05 -6.57287e-13 0.0) (2.73513e-05 1.98806e-14 0.0) (2.73513e-05 6.96478e-13 0.0) (2.73513e-05 3.92883e-13 0.0) (2.73513e-05 -3.18619e-15 0.0) (2.73513e-05 -3.88673e-13 0.0) (2.73513e-05 -6.66036e-13 0.0) (2.73513e-05 4.04144e-14 0.0) (2.73513e-05 7.46965e-13 0.0) (2.73513e-05 4.71655e-13 0.0) (2.73513e-05 9.36395e-14 0.0) (2.73513e-05 -2.88833e-13 0.0) (2.73513e-05 -5.76731e-13 0.0) (2.73513e-05 1.12972e-13 0.0) (2.73513e-05 8.06267e-13 0.0) (2.73512e-05 5.27652e-13 0.0) (2.73512e-05 1.56208e-13 0.0) (2.73512e-05 -2.15495e-13 0.0) (2.73512e-05 -4.96309e-13 0.0) (2.73512e-05 1.9154e-13 0.0) (2.73512e-05 8.7373e-13 0.0) (2.73512e-05 5.79558e-13 0.0) (2.73512e-05 1.94964e-13 0.0) (2.73512e-05 -1.8279e-13 0.0) (2.73512e-05 -4.62655e-13 0.0) (2.73512e-05 2.28608e-13 0.0) (2.73512e-05 9.12317e-13 0.0) (2.73512e-05 6.11199e-13 0.0) (2.73512e-05 1.84435e-13 0.0) (2.73512e-05 -1.11742e-13 0.0) (2.73512e-05 5.78315e-13 0.0) (2.73512e-05 1.27405e-12 0.0) (2.73512e-05 9.96191e-13 0.0) (2.73512e-05 6.2171e-13 0.0) (2.73512e-05 2.4592e-13 0.0) (2.73512e-05 -3.38313e-14 0.0) (2.73512e-05 6.63389e-13 0.0) (2.73512e-05 1.361e-12 0.0) (2.73512e-05 1.08034e-12 0.0) (2.73512e-05 6.99544e-13 0.0) (2.73512e-05 3.13912e-13 0.0) (2.73512e-05 1.98074e-14 0.0) (2.73512e-05 6.98737e-13 0.0) (2.73512e-05 1.37793e-12 0.0) (2.73512e-05 1.0843e-12 0.0) (2.73512e-05 7.0039e-13 0.0) (2.73512e-05 3.22618e-13 0.0) (2.73512e-05 4.3498e-14 0.0) (2.73512e-05 7.36356e-13 0.0) (2.73511e-05 1.42009e-12 0.0) (2.73511e-05 1.11584e-12 0.0) (2.73511e-05 7.03971e-13 0.0) (2.73511e-05 2.83391e-13 0.0) (2.73511e-05 -4.94969e-14 0.0) (2.73511e-05 5.81505e-13 0.0) (2.73511e-05 1.19892e-12 0.0) (2.73511e-05 8.21996e-13 0.0) (2.73511e-05 3.03662e-13 0.0) (2.73511e-05 -1.01264e-13 0.0) (2.73511e-05 4.62596e-13 0.0) (2.73511e-05 1.01925e-12 0.0) (2.73511e-05 5.92006e-13 0.0) (2.73511e-05 5.4697e-14 0.0) (2.73511e-05 -5.02178e-13 0.0) (2.73512e-05 -9.88094e-13 0.0) (2.73512e-05 -5.30084e-13 0.0) (2.73512e-05 -1.06889e-13 0.0) (2.73512e-05 -6.95323e-13 0.0) (2.73512e-05 -1.41536e-12 0.0) (2.73512e-05 -2.1686e-12 0.0) (2.73513e-05 -2.85977e-12 0.0) (2.73513e-05 -2.6168e-12 0.0) (2.73513e-05 -2.42415e-12 0.0) (2.73514e-05 -3.26618e-12 0.0) (2.73514e-05 -4.27024e-12 0.0) (2.73514e-05 -5.3424e-12 0.0) (2.73515e-05 -6.38837e-12 0.0) (2.73516e-05 -6.53649e-12 0.0) (2.73516e-05 -6.77312e-12 0.0) (2.73517e-05 -8.08404e-12 0.0) (2.73518e-05 -9.5996e-12 0.0) (2.73519e-05 -1.1229e-11 0.0) (2.7352e-05 -1.28786e-11 0.0) (2.73521e-05 -1.36757e-11 0.0) (2.73522e-05 -1.46057e-11 0.0) (2.73524e-05 -1.66571e-11 0.0) (2.73525e-05 -1.89939e-11 0.0) (2.73527e-05 -2.13835e-11 0.0) (2.73529e-05 -2.29933e-11 0.0) (2.73531e-05 -2.48211e-11 0.0) (2.73533e-05 -2.78466e-11 0.0) (2.73536e-05 -3.11994e-11 0.0) (2.73538e-05 -3.47975e-11 0.0) (2.73541e-05 -3.85606e-11 0.0) (2.73545e-05 -4.16352e-11 0.0) (2.73548e-05 -4.50373e-11 0.0) (2.73552e-05 -4.97591e-11 0.0) (2.73556e-05 -5.49398e-11 0.0) (2.73561e-05 -6.05069e-11 0.0) (2.73566e-05 -6.6383e-11 0.0) (2.73572e-05 -7.17164e-11 0.0) (2.73578e-05 -7.75378e-11 0.0) (2.73584e-05 -8.48362e-11 0.0) (2.73591e-05 -9.27512e-11 0.0) (2.73599e-05 -1.01221e-10 0.0) (2.73607e-05 -1.10175e-10 0.0) (2.73616e-05 -1.18775e-10 0.0) (2.73625e-05 -1.28081e-10 0.0) (2.73636e-05 -1.39082e-10 0.0) (2.73647e-05 -1.50912e-10 0.0) (2.73659e-05 -1.63511e-10 0.0) (2.73672e-05 -1.76806e-10 0.0) (2.73686e-05 -1.89951e-10 0.0) (2.737e-05 -2.04041e-10 0.0) (2.73716e-05 -2.20047e-10 0.0) (2.73734e-05 -2.37115e-10 0.0) (2.73752e-05 -2.55023e-10 0.0) (2.73771e-05 -2.72947e-10 0.0) (2.73792e-05 -2.92018e-10 0.0) (2.73815e-05 -3.13165e-10 0.0) (2.73838e-05 -3.35471e-10 0.0) (2.73864e-05 -3.58861e-10 0.0) (2.73891e-05 -3.83212e-10 0.0) (2.73919e-05 -4.07628e-10 0.0) (2.7395e-05 -4.33267e-10 0.0) (2.73982e-05 -4.60984e-10 0.0) (2.74016e-05 -4.8979e-10 0.0) (2.74052e-05 -5.19561e-10 0.0) (2.74089e-05 -5.50097e-10 0.0) (2.74129e-05 -5.80408e-10 0.0) (2.74171e-05 -6.11643e-10 0.0) (2.74214e-05 -6.44482e-10 0.0) (2.7426e-05 -6.77772e-10 0.0) (2.74307e-05 -7.11254e-10 0.0) (2.74357e-05 -7.44559e-10 0.0) (2.74408e-05 -7.76522e-10 0.0) (2.74461e-05 -8.08222e-10 0.0) (2.74516e-05 -8.40065e-10 0.0) (2.74573e-05 -8.70647e-10 0.0) (2.74631e-05 -8.99464e-10 0.0) (2.7469e-05 -9.25851e-10 0.0) (2.74749e-05 -9.48325e-10 0.0) (2.7481e-05 -9.67737e-10 0.0) (2.7487e-05 -9.84036e-10 0.0) (2.74931e-05 -9.95445e-10 0.0) (2.74991e-05 -1.00085e-09 0.0) (2.75049e-05 -9.98454e-10 0.0) (2.75106e-05 -9.88795e-10 0.0) (2.75161e-05 -9.71323e-10 0.0) (2.75212e-05 -9.43861e-10 0.0) (2.75259e-05 -9.05083e-10 0.0) (2.75301e-05 -8.53447e-10 0.0) (2.75336e-05 -7.86592e-10 0.0) (2.75365e-05 -7.04415e-10 0.0) (2.75384e-05 -6.05733e-10 0.0) (2.75394e-05 -4.87958e-10 0.0) (2.75392e-05 -3.49231e-10 0.0) (2.75376e-05 -1.87518e-10 0.0) (2.75345e-05 -3.15767e-14 0.0) (2.75297e-05 2.14147e-10 0.0) (2.7523e-05 4.56608e-10 0.0) (2.75141e-05 7.30042e-10 0.0) (2.75029e-05 1.03661e-09 0.0) (2.74889e-05 1.37843e-09 0.0) (2.74721e-05 1.75822e-09 0.0) (2.74521e-05 2.17774e-09 0.0) (2.74286e-05 2.63812e-09 0.0) (2.74012e-05 3.1413e-09 0.0) (2.73697e-05 3.68902e-09 0.0) (2.73338e-05 4.28256e-09 0.0) (2.72932e-05 4.92369e-09 0.0) (2.72474e-05 5.61468e-09 0.0) (2.7196e-05 6.35469e-09 0.0) (2.71389e-05 7.14332e-09 0.0) (2.70755e-05 7.98057e-09 0.0) (2.70057e-05 8.86656e-09 0.0) (2.69291e-05 9.80373e-09 0.0) (2.68451e-05 1.07881e-08 0.0) (2.67536e-05 1.18168e-08 0.0) (2.66543e-05 1.2888e-08 0.0) (2.65468e-05 1.39981e-08 0.0) (2.64311e-05 1.51443e-08 0.0) (2.63068e-05 1.63292e-08 0.0) (2.61735e-05 1.75439e-08 0.0) (2.60311e-05 1.87822e-08 0.0) (2.58795e-05 2.00384e-08 0.0) (2.57187e-05 2.13067e-08 0.0) (2.55487e-05 2.25818e-08 0.0) (2.53694e-05 2.38674e-08 0.0) (2.51804e-05 2.5149e-08 0.0) (2.49822e-05 2.64177e-08 0.0) (2.47747e-05 2.76678e-08 0.0) (2.45582e-05 2.88913e-08 0.0) (2.43332e-05 3.00823e-08 0.0) (2.40996e-05 3.12478e-08 0.0) (2.38573e-05 3.237e-08 0.0) (2.3607e-05 3.34398e-08 0.0) (2.33492e-05 3.44534e-08 0.0) (2.30841e-05 3.54033e-08 0.0) (2.28127e-05 3.62863e-08 0.0) (2.2535e-05 3.71142e-08 0.0) (2.22512e-05 3.78682e-08 0.0) (2.19621e-05 3.85413e-08 0.0) (2.16683e-05 3.91309e-08 0.0) (2.13709e-05 3.9638e-08 0.0) (2.10699e-05 4.00783e-08 0.0) (2.07655e-05 4.04343e-08 0.0) (2.04588e-05 4.07031e-08 0.0) (2.01504e-05 4.08873e-08 0.0) (1.98408e-05 4.09856e-08 0.0) (1.9531e-05 4.10024e-08 0.0) (1.92213e-05 4.09567e-08 0.0) (1.89116e-05 4.08329e-08 0.0) (1.86031e-05 4.06316e-08 0.0) (1.82962e-05 4.03581e-08 0.0) (1.79913e-05 4.00139e-08 0.0) (1.76896e-05 3.96057e-08 0.0) (1.73908e-05 3.91533e-08 0.0) (1.70951e-05 3.86433e-08 0.0) (1.68032e-05 3.80781e-08 0.0) (1.65156e-05 3.74639e-08 0.0) (1.62325e-05 3.68031e-08 0.0) (1.59547e-05 3.61031e-08 0.0) (1.5682e-05 3.53822e-08 0.0) (1.54143e-05 3.46288e-08 0.0) (1.51522e-05 3.38451e-08 0.0) (1.4896e-05 3.30372e-08 0.0) (1.46457e-05 3.22072e-08 0.0) (1.44018e-05 3.13614e-08 0.0) (1.41642e-05 3.05155e-08 0.0) (1.39325e-05 2.9659e-08 0.0) (1.37072e-05 2.87931e-08 0.0) (1.34883e-05 2.79207e-08 0.0) (1.32762e-05 2.70475e-08 0.0) (1.30705e-05 2.61867e-08 0.0) (1.28709e-05 2.5329e-08 0.0) (1.26777e-05 2.44753e-08 0.0) (1.24908e-05 2.36287e-08 0.0) (1.23103e-05 2.27899e-08 0.0) (1.21362e-05 2.19622e-08 0.0) (1.19683e-05 2.11556e-08 0.0) (1.18061e-05 2.03625e-08 0.0) (1.16499e-05 1.95826e-08 0.0) (1.14996e-05 1.88179e-08 0.0) (1.13549e-05 1.80682e-08 0.0) (1.12161e-05 1.73352e-08 0.0) (1.10827e-05 1.66267e-08 0.0) (1.09545e-05 1.59369e-08 0.0) (1.08314e-05 1.52645e-08 0.0) (1.07134e-05 1.46105e-08 0.0) (1.06004e-05 1.39746e-08 0.0) (1.04922e-05 1.33572e-08 0.0) (1.03887e-05 1.27644e-08 0.0) (1.02895e-05 1.2192e-08 0.0) (1.01947e-05 1.16384e-08 0.0) (1.0104e-05 1.11043e-08 0.0) (1.00174e-05 1.05889e-08 0.0) (9.93473e-06 1.00921e-08 0.0) (9.85582e-06 9.61908e-09 0.0) (9.78038e-06 9.16734e-09 0.0) (9.70836e-06 8.73495e-09 0.0) (9.63962e-06 8.32174e-09 0.0) (9.57408e-06 7.92745e-09 0.0) (9.5115e-06 7.55708e-09 0.0) (9.45162e-06 7.20964e-09 0.0) (9.39437e-06 6.88361e-09 0.0) (9.33959e-06 6.57995e-09 0.0) (9.28709e-06 6.29913e-09 0.0) (9.23678e-06 6.04101e-09 0.0) (9.18838e-06 5.8111e-09 0.0) (9.14164e-06 5.61087e-09 0.0) (9.09642e-06 5.44021e-09 0.0) (9.05248e-06 5.30198e-09 0.0) (9.00959e-06 5.19921e-09 0.0) (8.96756e-06 5.13467e-09 0.0) (8.92602e-06 5.1182e-09 0.0) (8.88459e-06 5.1585e-09 0.0) (8.84296e-06 5.26372e-09 0.0) (8.80069e-06 5.4495e-09 0.0) (8.75726e-06 5.73853e-09 0.0) (8.71211e-06 6.16423e-09 0.0) (8.66435e-06 6.78828e-09 0.0) (8.61283e-06 7.71377e-09 0.0) (8.5561e-06 9.12383e-09 0.0) (8.4922e-06 1.13133e-08 0.0) (8.41853e-06 1.45387e-08 0.0) (8.32783e-06 1.94475e-08 0.0) (8.19819e-06 3.19536e-08 0.0) (8.04134e-06 6.23067e-08 0.0) (0.000299558 7.94654e-05 0.0) (0.000290401 9.24521e-05 0.0) (0.000251818 6.93262e-05 0.0) (0.000210233 4.88111e-05 0.0) (0.000174999 3.47872e-05 0.0) (0.000146038 2.56899e-05 0.0) (0.000121871 1.99072e-05 0.0) (0.000101237 1.62518e-05 0.0) (8.31414e-05 1.39242e-05 0.0) (6.68493e-05 1.23965e-05 0.0) (5.18815e-05 1.12871e-05 0.0) (3.80172e-05 1.02573e-05 0.0) (2.53323e-05 8.93965e-06 0.0) (1.42635e-05 6.9301e-06 0.0) (5.57617e-06 3.94299e-06 0.0) (8.2162e-08 4.76582e-07 0.0) (8.58048e-12 7.64697e-12 0.0) (7.93915e-12 3.85226e-12 0.0) (6.82562e-12 1.73714e-12 0.0) (5.61562e-12 7.99884e-13 0.0) (4.94939e-12 3.84844e-13 0.0) (4.59028e-12 1.85273e-13 0.0) (4.38768e-12 8.23228e-14 0.0) (4.27832e-12 3.13409e-14 0.0) (4.22431e-12 1.06253e-14 0.0) (4.19802e-12 5.72593e-15 0.0) (4.18911e-12 4.02348e-15 0.0) (4.19972e-12 -6.01128e-15 0.0) (4.24837e-12 -3.74818e-14 0.0) (4.36334e-12 -1.08626e-13 0.0) (4.59631e-12 -2.56612e-13 0.0) (5.0677e-12 -5.78851e-13 0.0) (5.97094e-12 -1.35121e-12 0.0) (6.83396e-12 -3.22906e-12 0.0) (7.36295e-12 -6.85183e-12 0.0) (-1.21767e-07 3.9928e-07 0.0) (-2.54011e-07 2.49358e-07 0.0) (-1.17446e-07 -1.9626e-08 0.0) (2.66187e-07 -2.37154e-07 0.0) (7.95059e-07 -3.60746e-07 0.0) (1.36967e-06 -3.9742e-07 0.0) (1.912e-06 -3.67912e-07 0.0) (2.36515e-06 -2.92736e-07 0.0) (2.69044e-06 -1.88498e-07 0.0) (2.86391e-06 -6.79564e-08 0.0) (2.87346e-06 5.85445e-08 0.0) (2.7175e-06 1.81337e-07 0.0) (2.4054e-06 2.89717e-07 0.0) (1.9588e-06 3.70244e-07 0.0) (1.41503e-06 4.05151e-07 0.0) (8.31118e-07 3.72231e-07 0.0) (2.87328e-07 2.4865e-07 0.0) (-1.12341e-07 2.55002e-08 0.0) (-2.59151e-07 -2.54536e-07 0.0) (-1.26447e-07 -4.13731e-07 0.0) (5.77896e-12 5.36928e-12 0.0) (5.3626e-12 2.54079e-12 0.0) (4.67519e-12 1.07304e-12 0.0) (3.94948e-12 4.69476e-13 0.0) (3.55939e-12 2.17321e-13 0.0) (3.35555e-12 9.97772e-14 0.0) (3.24602e-12 4.12311e-14 0.0) (3.19076e-12 1.38263e-14 0.0) (3.16667e-12 4.51911e-15 0.0) (3.15704e-12 3.37304e-15 0.0) (3.15782e-12 2.07786e-15 0.0) (3.17374e-12 -8.35947e-15 0.0) (3.22202e-12 -3.67596e-14 0.0) (3.32606e-12 -9.58344e-14 0.0) (3.52413e-12 -2.10661e-13 0.0) (3.9038e-12 -4.55015e-13 0.0) (4.60851e-12 -1.04414e-12 0.0) (5.27673e-12 -2.49629e-12 0.0) (5.68368e-12 -5.3245e-12 0.0) (-1.3922e-07 4.36954e-07 0.0) (-7.0875e-07 4.50763e-07 0.0) (-1.07398e-06 1.81331e-07 0.0) (-1.07656e-06 -1.78576e-07 0.0) (-7.13213e-07 -4.51334e-07 0.0) (-1.40278e-07 -4.39113e-07 0.0) (1.51036e-11 1.41687e-11 0.0) (1.4027e-11 6.62307e-12 0.0) (1.22772e-11 2.74201e-12 0.0) (1.04491e-11 1.16244e-12 0.0) (9.50456e-12 5.10058e-13 0.0) (9.03123e-12 2.15613e-13 0.0) (8.7974e-12 7.63693e-14 0.0) (8.68436e-12 1.62689e-14 0.0) (8.6512e-12 -2.06621e-15 0.0) (8.64598e-12 -3.36486e-15 0.0) (8.67693e-12 -7.37454e-15 0.0) (8.74398e-12 -3.69635e-14 0.0) (8.90762e-12 -1.15116e-13 0.0) (9.21768e-12 -2.8266e-13 0.0) (9.79943e-12 -6.1638e-13 0.0) (1.09034e-11 -1.33537e-12 0.0) (1.29675e-11 -3.03296e-12 0.0) (1.49131e-11 -7.10365e-12 0.0) (1.60772e-11 -1.48387e-11 0.0) (-2.22439e-07 6.5335e-07 0.0) (1.61457e-06 -9.58064e-07 0.0) (5.13812e-06 -2.55012e-06 0.0) (9.89143e-06 -3.57454e-06 0.0) (1.52825e-05 -4.05744e-06 0.0) (2.08528e-05 -4.15898e-06 0.0) (2.63126e-05 -4.03154e-06 0.0) (3.14992e-05 -3.78342e-06 0.0) (3.6329e-05 -3.4825e-06 0.0) (4.0769e-05 -3.16826e-06 0.0) (4.48176e-05 -2.86207e-06 0.0) (4.84901e-05 -2.57458e-06 0.0) (5.18095e-05 -2.31036e-06 0.0) (5.48028e-05 -2.07057e-06 0.0) (5.74988e-05 -1.85452e-06 0.0) (5.99253e-05 -1.66063e-06 0.0) (6.21078e-05 -1.48702e-06 0.0) (6.40701e-05 -1.33175e-06 0.0) (6.58346e-05 -1.19286e-06 0.0) (6.74208e-05 -1.06858e-06 0.0) (6.88464e-05 -9.57319e-07 0.0) (7.01275e-05 -8.57624e-07 0.0) (7.12787e-05 -7.68198e-07 0.0) (7.23127e-05 -6.87926e-07 0.0) (7.32409e-05 -6.15821e-07 0.0) (7.40738e-05 -5.50994e-07 0.0) (7.48209e-05 -4.92665e-07 0.0) (7.54903e-05 -4.40162e-07 0.0) (7.60896e-05 -3.9289e-07 0.0) (7.66257e-05 -3.50302e-07 0.0) (7.71047e-05 -3.11934e-07 0.0) (7.7532e-05 -2.77371e-07 0.0) (7.79127e-05 -2.46233e-07 0.0) (7.82514e-05 -2.18183e-07 0.0) (7.85521e-05 -1.92928e-07 0.0) (7.88185e-05 -1.70202e-07 0.0) (7.9054e-05 -1.49758e-07 0.0) (7.92617e-05 -1.31383e-07 0.0) (7.94443e-05 -1.14884e-07 0.0) (7.96044e-05 -1.00081e-07 0.0) (7.97442e-05 -8.68128e-08 0.0) (7.98659e-05 -7.49374e-08 0.0) (7.99712e-05 -6.43241e-08 0.0) (8.0062e-05 -5.48525e-08 0.0) (8.01397e-05 -4.64134e-08 0.0) (8.02057e-05 -3.89098e-08 0.0) (8.02614e-05 -3.22525e-08 0.0) (8.03079e-05 -2.63584e-08 0.0) (8.03462e-05 -2.11545e-08 0.0) (8.03772e-05 -1.65733e-08 0.0) (8.04019e-05 -1.25528e-08 0.0) (8.0421e-05 -9.03697e-09 0.0) (8.04351e-05 -5.97519e-09 0.0) (8.0445e-05 -3.32102e-09 0.0) (8.04511e-05 -1.03214e-09 0.0) (8.0454e-05 9.29842e-10 0.0) (8.04541e-05 2.59964e-09 0.0) (8.04518e-05 4.00908e-09 0.0) (8.04475e-05 5.18686e-09 0.0) (8.04415e-05 6.15889e-09 0.0) (8.04341e-05 6.94898e-09 0.0) (8.04256e-05 7.57833e-09 0.0) (8.04161e-05 8.06597e-09 0.0) (8.04059e-05 8.4294e-09 0.0) (8.03951e-05 8.68456e-09 0.0) (8.03839e-05 8.84528e-09 0.0) (8.03724e-05 8.92433e-09 0.0) (8.03608e-05 8.93342e-09 0.0) (8.03491e-05 8.88245e-09 0.0) (8.03375e-05 8.78021e-09 0.0) (8.03259e-05 8.63506e-09 0.0) (8.03145e-05 8.45457e-09 0.0) (8.03033e-05 8.24483e-09 0.0) (8.02924e-05 8.01117e-09 0.0) (8.02817e-05 7.75884e-09 0.0) (8.02714e-05 7.49249e-09 0.0) (8.02614e-05 7.21557e-09 0.0) (8.02518e-05 6.93163e-09 0.0) (8.02425e-05 6.64391e-09 0.0) (8.02336e-05 6.35458e-09 0.0) (8.02251e-05 6.06545e-09 0.0) (8.02169e-05 5.77866e-09 0.0) (8.02091e-05 5.49611e-09 0.0) (8.02017e-05 5.2188e-09 0.0) (8.01947e-05 4.94747e-09 0.0) (8.0188e-05 4.68324e-09 0.0) (8.01817e-05 4.42706e-09 0.0) (8.01757e-05 4.17907e-09 0.0) (8.01701e-05 3.93993e-09 0.0) (8.01647e-05 3.71021e-09 0.0) (8.01597e-05 3.48976e-09 0.0) (8.0155e-05 3.27834e-09 0.0) (8.01505e-05 3.07626e-09 0.0) (8.01463e-05 2.88373e-09 0.0) (8.01424e-05 2.70026e-09 0.0) (8.01387e-05 2.5259e-09 0.0) (8.01353e-05 2.36076e-09 0.0) (8.01321e-05 2.20429e-09 0.0) (8.01291e-05 2.05596e-09 0.0) (8.01263e-05 1.9158e-09 0.0) (8.01236e-05 1.78382e-09 0.0) (8.01212e-05 1.65945e-09 0.0) (8.01189e-05 1.54208e-09 0.0) (8.01168e-05 1.43169e-09 0.0) (8.01149e-05 1.32819e-09 0.0) (8.0113e-05 1.23091e-09 0.0) (8.01113e-05 1.13976e-09 0.0) (8.01098e-05 1.05469e-09 0.0) (8.01083e-05 9.75134e-10 0.0) (8.0107e-05 9.0052e-10 0.0) (8.01057e-05 8.30856e-10 0.0) (8.01046e-05 7.66149e-10 0.0) (8.01035e-05 7.05849e-10 0.0) (8.01026e-05 6.49413e-10 0.0) (8.01017e-05 5.96862e-10 0.0) (8.01008e-05 5.48176e-10 0.0) (8.01001e-05 5.02789e-10 0.0) (8.00994e-05 4.60694e-10 0.0) (8.00987e-05 4.2194e-10 0.0) (8.00982e-05 3.8605e-10 0.0) (8.00976e-05 3.52554e-10 0.0) (8.00971e-05 3.21533e-10 0.0) (8.00967e-05 2.93028e-10 0.0) (8.00963e-05 2.66547e-10 0.0) (8.00959e-05 2.42147e-10 0.0) (8.00956e-05 2.1994e-10 0.0) (8.00953e-05 1.99507e-10 0.0) (8.0095e-05 1.80445e-10 0.0) (8.00947e-05 1.62912e-10 0.0) (8.00945e-05 1.47075e-10 0.0) (8.00943e-05 1.32566e-10 0.0) (8.00941e-05 1.19016e-10 0.0) (8.00939e-05 1.06582e-10 0.0) (8.00938e-05 9.53674e-11 0.0) (8.00936e-05 8.49437e-11 0.0) (8.00935e-05 7.5436e-11 0.0) (8.00934e-05 6.70369e-11 0.0) (8.00933e-05 5.94147e-11 0.0) (8.00932e-05 5.2239e-11 0.0) (8.00932e-05 4.57222e-11 0.0) (8.00931e-05 4.00775e-11 0.0) (8.0093e-05 3.49785e-11 0.0) (8.0093e-05 3.01002e-11 0.0) (8.00929e-05 2.56525e-11 0.0) (8.00929e-05 2.17971e-11 0.0) (8.00929e-05 1.81653e-11 0.0) (8.00928e-05 1.49248e-11 0.0) (8.00928e-05 1.22954e-11 0.0) (8.00928e-05 9.96852e-12 0.0) (8.00928e-05 7.63931e-12 0.0) (8.00928e-05 5.53637e-12 0.0) (8.00928e-05 3.83369e-12 0.0) (8.00927e-05 2.1696e-12 0.0) (8.00927e-05 7.20211e-13 0.0) (8.00927e-05 -2.78365e-13 0.0) (8.00927e-05 -1.1173e-12 0.0) (8.00927e-05 -2.08905e-12 0.0) (8.00927e-05 -2.94068e-12 0.0) (8.00927e-05 -3.4162e-12 0.0) (8.00927e-05 -3.79928e-12 0.0) (8.00927e-05 -4.37112e-12 0.0) (8.00928e-05 -4.88475e-12 0.0) (8.00928e-05 -5.15041e-12 0.0) (8.00928e-05 -5.51552e-12 0.0) (8.00928e-05 -5.79077e-12 0.0) (8.00928e-05 -5.72875e-12 0.0) (8.00928e-05 -5.61192e-12 0.0) (8.00928e-05 -5.7238e-12 0.0) (8.00928e-05 -5.80515e-12 0.0) (8.00928e-05 -5.59184e-12 0.0) (8.00928e-05 -5.35629e-12 0.0) (8.00928e-05 -5.37216e-12 0.0) (8.00928e-05 -5.38874e-12 0.0) (8.00928e-05 -5.21475e-12 0.0) (8.00928e-05 -5.19574e-12 0.0) (8.00929e-05 -5.14242e-12 0.0) (8.00929e-05 -4.80573e-12 0.0) (8.00929e-05 -4.46062e-12 0.0) (8.00929e-05 -4.38289e-12 0.0) (8.00929e-05 -4.32161e-12 0.0) (8.00929e-05 -4.08379e-12 0.0) (8.00929e-05 -4.01322e-12 0.0) (8.00929e-05 -3.91745e-12 0.0) (8.00929e-05 -3.54612e-12 0.0) (8.00929e-05 -3.1727e-12 0.0) (8.00929e-05 -3.06712e-12 0.0) (8.00929e-05 -2.96167e-12 0.0) (8.00929e-05 -2.59146e-12 0.0) (8.00929e-05 -2.23343e-12 0.0) (8.00929e-05 -2.19205e-12 0.0) (8.00929e-05 -2.38933e-12 0.0) (8.00929e-05 -2.89517e-12 0.0) (8.00929e-05 -2.9018e-12 0.0) (8.00929e-05 -2.32878e-13 0.0) (8.00929e-05 2.348e-12 0.0) (8.00929e-05 1.9198e-12 0.0) (8.00929e-05 2.50446e-13 0.0) (8.00929e-05 -1.41851e-12 0.0) (8.00929e-05 -1.85363e-12 0.0) (8.00929e-05 6.9096e-13 0.0) (8.00929e-05 3.23688e-12 0.0) (8.00929e-05 2.80475e-12 0.0) (8.00929e-05 1.13777e-12 0.0) (8.00929e-05 -5.36313e-13 0.0) (8.00929e-05 -9.87267e-13 0.0) (8.00929e-05 1.5368e-12 0.0) (8.00929e-05 4.06658e-12 0.0) (8.00929e-05 3.62944e-12 0.0) (8.00929e-05 1.97029e-12 0.0) (8.00929e-05 3.14246e-13 0.0) (8.00929e-05 -1.13159e-13 0.0) (8.00929e-05 2.43542e-12 0.0) (8.00929e-05 4.98862e-12 0.0) (8.00929e-05 4.5747e-12 0.0) (8.00929e-05 2.94081e-12 0.0) (8.00929e-05 1.31428e-12 0.0) (8.00929e-05 9.23602e-13 0.0) (8.00929e-05 3.52315e-12 0.0) (8.00929e-05 6.15742e-12 0.0) (8.00929e-05 5.88876e-12 0.0) (8.00929e-05 4.63587e-12 0.0) (8.00929e-05 4.36809e-12 0.0) (8.00928e-05 7.00266e-12 0.0) (8.00928e-05 9.59928e-12 0.0) (8.00928e-05 9.19813e-12 0.0) (8.00928e-05 7.55204e-12 0.0) (8.00928e-05 5.89086e-12 0.0) (8.00928e-05 5.44185e-12 0.0) (8.00928e-05 7.95052e-12 0.0) (8.00928e-05 1.04411e-11 0.0) (8.00928e-05 9.93402e-12 0.0) (8.00927e-05 8.171e-12 0.0) (8.00927e-05 6.37685e-12 0.0) (8.00927e-05 5.77679e-12 0.0) (8.00927e-05 8.11641e-12 0.0) (8.00927e-05 1.04209e-11 0.0) (8.00927e-05 9.71095e-12 0.0) (8.00927e-05 7.72622e-12 0.0) (8.00927e-05 5.68563e-12 0.0) (8.00927e-05 4.8049e-12 0.0) (8.00927e-05 6.81851e-12 0.0) (8.00927e-05 8.74062e-12 0.0) (8.00926e-05 7.58307e-12 0.0) (8.00926e-05 5.08159e-12 0.0) (8.00926e-05 2.45463e-12 0.0) (8.00926e-05 9.21517e-13 0.0) (8.00926e-05 2.22607e-12 0.0) (8.00926e-05 3.39668e-12 0.0) (8.00926e-05 1.47292e-12 0.0) (8.00926e-05 -1.64802e-12 0.0) (8.00926e-05 -4.01944e-12 0.0) (8.00927e-05 -3.74315e-12 0.0) (8.00927e-05 -3.78038e-12 0.0) (8.00927e-05 -7.1192e-12 0.0) (8.00927e-05 -1.20327e-11 0.0) (8.00927e-05 -1.73246e-11 0.0) (8.00928e-05 -2.18048e-11 0.0) (8.00928e-05 -2.37625e-11 0.0) (8.00928e-05 -2.62144e-11 0.0) (8.00929e-05 -3.21886e-11 0.0) (8.00929e-05 -3.99818e-11 0.0) (8.0093e-05 -4.84184e-11 0.0) (8.00931e-05 -5.633e-11 0.0) (8.00932e-05 -6.20257e-11 0.0) (8.00933e-05 -6.8553e-11 0.0) (8.00934e-05 -7.89774e-11 0.0) (8.00935e-05 -9.16218e-11 0.0) (8.00937e-05 -1.05343e-10 0.0) (8.00939e-05 -1.19003e-10 0.0) (8.0094e-05 -1.30936e-10 0.0) (8.00942e-05 -1.44228e-10 0.0) (8.00945e-05 -1.61994e-10 0.0) (8.00947e-05 -1.8259e-10 0.0) (8.0095e-05 -2.04913e-10 0.0) (8.00953e-05 -2.27867e-10 0.0) (8.00957e-05 -2.49807e-10 0.0) (8.00961e-05 -2.73864e-10 0.0) (8.00965e-05 -3.03185e-10 0.0) (8.0097e-05 -3.36004e-10 0.0) (8.00975e-05 -3.70554e-10 0.0) (8.00981e-05 -4.05077e-10 0.0) (8.00987e-05 -4.42757e-10 0.0) (8.00994e-