/*--------------------------------*- C++ -*----------------------------------*\
| =========                 |                                                 |
| \\      /  F ield         | OpenFOAM: The Open Source CFD Toolbox           |
|  \\    /   O peration     | Version:  2512                                  |
|   \\  /    A nd           | Website:  www.openfoam.com                      |
|    \\/     M anipulation  |                                                 |
\*---------------------------------------------------------------------------*/
FoamFile
{
    version     2.0;
    format      ascii;
    arch        "LSB;label=32;scalar=64";
    class       volVectorField;
    location    "2";
    object      U;
}
// * * * * * * * * * * * * * * * * * * * * * * * * * * * * * * * * * * * * * //

dimensions      [0 1 -1 0 0 0 0];

internalField nonuniform List<vector> 79633((0.000218156 3.49201e-05 0.0) (0.00018349 2.99547e-05 0.0) (0.000134101 1.5497e-05 0.0) (9.80584e-05 8.17025e-06 0.0) (7.56372e-05 4.74781e-06 0.0) (6.10785e-05 2.89457e-06 0.0) (5.09944e-05 1.83787e-06 0.0) (4.36925e-05 1.23137e-06 0.0) (3.81987e-05 8.7246e-07 0.0) (3.3915e-05 6.49552e-07 0.0) (3.04704e-05 5.04115e-07 0.0) (2.76286e-05 4.0484e-07 0.0) (2.52336e-05 3.34318e-07 0.0) (2.31781e-05 2.82512e-07 0.0) (2.13861e-05 2.4343e-07 0.0) (1.98016e-05 2.13352e-07 0.0) (1.83825e-05 1.89886e-07 0.0) (1.70959e-05 1.71447e-07 0.0) (1.5916e-05 1.56954e-07 0.0) (1.48212e-05 1.4566e-07 0.0) (1.37939e-05 1.37041e-07 0.0) (1.28187e-05 1.30736e-07 0.0) (1.18822e-05 1.26494e-07 0.0) (1.09724e-05 1.24155e-07 0.0) (1.00781e-05 1.23617e-07 0.0) (9.18926e-06 1.24816e-07 0.0) (8.29619e-06 1.27698e-07 0.0) (7.39022e-06 1.3217e-07 0.0) (6.46392e-06 1.3801e-07 0.0) (5.51211e-06 1.4472e-07 0.0) (4.53338e-06 1.51243e-07 0.0) (3.53353e-06 1.55477e-07 0.0) (2.53048e-06 1.53552e-07 0.0) (1.5618e-06 1.38918e-07 0.0) (6.96279e-07 1.019e-07 0.0) (4.59177e-08 3.08004e-08 0.0) (-2.51758e-07 -8.09457e-08 0.0) (-1.70452e-07 -1.84643e-07 0.0) (3.65471e-12 6.28886e-12 0.0) (2.71702e-12 1.64401e-12 0.0) (2.09274e-12 3.63502e-13 0.0) (1.47829e-12 6.28994e-14 0.0) (1.27541e-12 1.35399e-14 0.0) (1.20821e-12 7.10554e-16 0.0) (1.18169e-12 -4.02129e-15 0.0) (1.17449e-12 -4.40299e-15 0.0) (1.17471e-12 -2.54757e-15 0.0) (1.17574e-12 1.72996e-16 0.0) (1.17444e-12 2.82125e-15 0.0) (1.17439e-12 4.57504e-15 0.0) (1.18262e-12 3.92028e-15 0.0) (1.21142e-12 -1.12824e-15 0.0) (1.28247e-12 -1.44291e-14 0.0) (1.49192e-12 -6.47432e-14 0.0) (2.11836e-12 -3.69407e-13 0.0) (2.75283e-12 -1.66492e-12 0.0) (3.70357e-12 -6.36339e-12 0.0) (-1.91845e-07 2.07967e-07 0.0) (-2.73032e-07 8.84428e-08 0.0) (7.63243e-08 -3.87216e-08 0.0) (8.19122e-07 -1.18087e-07 0.0) (1.79293e-06 -1.57762e-07 0.0) (2.86664e-06 -1.71453e-07 0.0) (3.95913e-06 -1.70365e-07 0.0) (5.02498e-06 -1.62004e-07 0.0) (6.04142e-06 -1.5077e-07 0.0) (6.99946e-06 -1.38978e-07 0.0) (7.89756e-06 -1.27734e-07 0.0) (8.73782e-06 -1.17499e-07 0.0) (9.52423e-06 -1.08407e-07 0.0) (1.02618e-05 -1.00424e-07 0.0) (1.09551e-05 -9.34487e-08 0.0) (1.16087e-05 -8.73618e-08 0.0) (1.22268e-05 -8.20405e-08 0.0) (1.28131e-05 -7.73686e-08 0.0) (1.33708e-05 -7.32426e-08 0.0) (1.39025e-05 -6.95777e-08 0.0) (1.44108e-05 -6.6297e-08 0.0) (1.48977e-05 -6.33334e-08 0.0) (1.53648e-05 -6.06346e-08 0.0) (1.58137e-05 -5.81545e-08 0.0) (1.62455e-05 -5.58527e-08 0.0) (1.66612e-05 -5.36943e-08 0.0) (1.70616e-05 -5.16542e-08 0.0) (1.74475e-05 -4.97097e-08 0.0) (1.78193e-05 -4.78406e-08 0.0) (1.81776e-05 -4.60297e-08 0.0) (1.85226e-05 -4.42668e-08 0.0) (1.88547e-05 -4.2541e-08 0.0) (1.9174e-05 -4.08426e-08 0.0) (1.94807e-05 -3.91682e-08 0.0) (1.9775e-05 -3.7514e-08 0.0) (2.00571e-05 -3.58755e-08 0.0) (2.0327e-05 -3.42501e-08 0.0) (2.05849e-05 -3.26401e-08 0.0) (2.08308e-05 -3.10455e-08 0.0) (2.10648e-05 -2.94671e-08 0.0) (2.12872e-05 -2.79058e-08 0.0) (2.1498e-05 -2.63656e-08 0.0) (2.16974e-05 -2.48487e-08 0.0) (2.18856e-05 -2.33571e-08 0.0) (2.20627e-05 -2.18951e-08 0.0) (2.2229e-05 -2.04657e-08 0.0) (2.23847e-05 -1.90713e-08 0.0) (2.25301e-05 -1.77143e-08 0.0) (2.26654e-05 -1.63982e-08 0.0) (2.2791e-05 -1.51252e-08 0.0) (2.29071e-05 -1.38966e-08 0.0) (2.30141e-05 -1.27148e-08 0.0) (2.31123e-05 -1.15812e-08 0.0) (2.3202e-05 -1.04962e-08 0.0) (2.32836e-05 -9.45998e-09 0.0) (2.33574e-05 -8.47301e-09 0.0) (2.34238e-05 -7.53488e-09 0.0) (2.34831e-05 -6.64448e-09 0.0) (2.35356e-05 -5.80047e-09 0.0) (2.35817e-05 -5.00157e-09 0.0) (2.36216e-05 -4.24554e-09 0.0) (2.36556e-05 -3.52992e-09 0.0) (2.36841e-05 -2.85222e-09 0.0) (2.37072e-05 -2.20933e-09 0.0) (2.37253e-05 -1.59776e-09 0.0) (2.37384e-05 -1.01391e-09 0.0) (2.37468e-05 -4.54012e-10 0.0) (2.37507e-05 8.61628e-11 0.0) (2.37501e-05 6.11071e-10 0.0) (2.37452e-05 1.12515e-09 0.0) (2.37359e-05 1.6332e-09 0.0) (2.37224e-05 2.14049e-09 0.0) (2.37045e-05 2.65223e-09 0.0) (2.36822e-05 3.17407e-09 0.0) (2.36555e-05 3.71204e-09 0.0) (2.36241e-05 4.27241e-09 0.0) (2.35879e-05 4.86154e-09 0.0) (2.35466e-05 5.48651e-09 0.0) (2.34999e-05 6.15496e-09 0.0) (2.34475e-05 6.87455e-09 0.0) (2.33889e-05 7.65395e-09 0.0) (2.33237e-05 8.50269e-09 0.0) (2.32513e-05 9.4309e-09 0.0) (2.31711e-05 1.04492e-08 0.0) (2.30824e-05 1.157e-08 0.0) (2.29844e-05 1.28071e-08 0.0) (2.28761e-05 1.41755e-08 0.0) (2.27565e-05 1.56913e-08 0.0) (2.26246e-05 1.73737e-08 0.0) (2.24791e-05 1.92445e-08 0.0) (2.23185e-05 2.13271e-08 0.0) (2.21413e-05 2.3649e-08 0.0) (2.19456e-05 2.62425e-08 0.0) (2.17295e-05 2.91441e-08 0.0) (2.14907e-05 3.23944e-08 0.0) (2.12266e-05 3.6042e-08 0.0) (2.09346e-05 4.01444e-08 0.0) (2.06112e-05 4.47672e-08 0.0) (2.02529e-05 4.99851e-08 0.0) (1.98557e-05 5.58884e-08 0.0) (1.94148e-05 6.25834e-08 0.0) (1.89251e-05 7.01896e-08 0.0) (1.83807e-05 7.88497e-08 0.0) (1.7775e-05 8.8731e-08 0.0) (1.71004e-05 1.00022e-07 0.0) (1.63487e-05 1.1293e-07 0.0) (1.55108e-05 1.2768e-07 0.0) (1.45767e-05 1.44501e-07 0.0) (1.35359e-05 1.63563e-07 0.0) (1.23785e-05 1.84922e-07 0.0) (1.10952e-05 2.08353e-07 0.0) (9.68011e-06 2.33037e-07 0.0) (8.13444e-06 2.57011e-07 0.0) (6.47295e-06 2.76246e-07 0.0) (4.73346e-06 2.83163e-07 0.0) (2.99313e-06 2.64837e-07 0.0) (1.39197e-06 2.02049e-07 0.0) (1.5557e-07 7.14832e-08 0.0) (-4.37356e-07 -1.40666e-07 0.0) (-3.15247e-07 -3.41657e-07 0.0) (2.33146e-11 4.06346e-11 0.0) (1.73671e-11 1.05672e-11 0.0) (1.34117e-11 2.29154e-12 0.0) (9.59318e-12 3.67617e-13 0.0) (8.40431e-12 6.33857e-14 0.0) (8.06231e-12 -1.1097e-14 0.0) (7.94064e-12 -3.30354e-14 0.0) (7.92374e-12 -3.12365e-14 0.0) (7.93013e-12 -1.72753e-14 0.0) (7.94349e-12 -1.0018e-16 0.0) (7.93007e-12 1.70783e-14 0.0) (7.92349e-12 3.10845e-14 0.0) (7.9399e-12 3.29507e-14 0.0) (8.06026e-12 1.12324e-14 0.0) (8.39969e-12 -6.27284e-14 0.0) (9.58264e-12 -3.65555e-13 0.0) (1.3389e-11 -2.28459e-12 0.0) (1.7333e-11 -1.05474e-11 0.0) (2.32686e-11 -4.0572e-11 0.0) (-2.7705e-07 3.00676e-07 0.0) (-4.73945e-07 1.39233e-07 0.0) (-9.21113e-08 -3.80294e-08 0.0) (8.15268e-07 -1.48024e-07 0.0) (2.00654e-06 -1.99032e-07 0.0) (3.27867e-06 -2.09638e-07 0.0) (4.49839e-06 -1.95877e-07 0.0) (5.58508e-06 -1.68888e-07 0.0) (6.49267e-06 -1.35286e-07 0.0) (7.19519e-06 -9.86042e-08 0.0) (7.67848e-06 -6.05342e-08 0.0) (7.93458e-06 -2.17263e-08 0.0) (7.95854e-06 1.7659e-08 0.0) (7.74715e-06 5.75666e-08 0.0) (7.29944e-06 9.77394e-08 0.0) (6.61807e-06 1.37343e-07 0.0) (5.71299e-06 1.74367e-07 0.0) (4.60804e-06 2.04693e-07 0.0) (3.35104e-06 2.2081e-07 0.0) (2.02787e-06 2.10328e-07 0.0) (7.8362e-07 1.55553e-07 0.0) (-1.59789e-07 3.65149e-08 0.0) (-5.3989e-07 -1.54826e-07 0.0) (-3.01734e-07 -3.27362e-07 0.0) (4.46417e-11 7.79982e-11 0.0) (3.32643e-11 2.02619e-11 0.0) (2.57048e-11 4.3758e-12 0.0) (1.84328e-11 6.91728e-13 0.0) (1.61962e-11 1.12796e-13 0.0) (1.55707e-11 -2.57806e-14 0.0) (1.53543e-11 -6.55478e-14 0.0) (1.53293e-11 -5.95251e-14 0.0) (1.53428e-11 -3.2759e-14 0.0) (1.53683e-11 8.17434e-16 0.0) (1.53424e-11 3.29133e-14 0.0) (1.53294e-11 6.07952e-14 0.0) (1.53577e-11 6.4782e-14 0.0) (1.558e-11 2.52904e-14 0.0) (1.62177e-11 -1.16202e-13 0.0) (1.84763e-11 -6.98053e-13 0.0) (2.57927e-11 -4.3973e-12 0.0) (3.33883e-11 -2.03296e-11 0.0) (4.48111e-11 -7.82485e-11 0.0) (-4.16062e-07 4.50919e-07 0.0) (-5.11949e-07 1.72189e-07 0.0) (3.7085e-07 -1.15883e-07 0.0) (2.11815e-06 -2.8976e-07 0.0) (4.34312e-06 -3.70654e-07 0.0) (6.73922e-06 -3.91565e-07 0.0) (9.11856e-06 -3.78945e-07 0.0) (1.13789e-05 -3.5043e-07 0.0) (1.34724e-05 -3.16213e-07 0.0) (1.53823e-05 -2.81609e-07 0.0) (1.71092e-05 -2.49125e-07 0.0) (1.86625e-05 -2.19768e-07 0.0) (2.00562e-05 -1.93748e-07 0.0) (2.13049e-05 -1.70915e-07 0.0) (2.24233e-05 -1.50976e-07 0.0) (2.34252e-05 -1.33584e-07 0.0) (2.43233e-05 -1.18393e-07 0.0) (2.51288e-05 -1.05092e-07 0.0) (2.58514e-05 -9.34118e-08 0.0) (2.64999e-05 -8.31138e-08 0.0) (2.70823e-05 -7.39934e-08 0.0) (2.76049e-05 -6.58799e-08 0.0) (2.80738e-05 -5.86341e-08 0.0) (2.84941e-05 -5.2135e-08 0.0) (2.88704e-05 -4.62835e-08 0.0) (2.92065e-05 -4.10006e-08 0.0) (2.95063e-05 -3.62197e-08 0.0) (2.9773e-05 -3.18848e-08 0.0) (3.00094e-05 -2.79516e-08 0.0) (3.02181e-05 -2.43854e-08 0.0) (3.04018e-05 -2.11565e-08 0.0) (3.05627e-05 -1.82398e-08 0.0) (3.07028e-05 -1.56148e-08 0.0) (3.08243e-05 -1.3265e-08 0.0) (3.09289e-05 -1.11741e-08 0.0) (3.10185e-05 -9.32777e-09 0.0) (3.10947e-05 -7.71256e-09 0.0) (3.11592e-05 -6.31447e-09 0.0) (3.12134e-05 -5.11884e-09 0.0) (3.12586e-05 -4.11086e-09 0.0) (3.12961e-05 -3.27473e-09 0.0) (3.13271e-05 -2.59328e-09 0.0) (3.13526e-05 -2.04868e-09 0.0) (3.13735e-05 -1.62207e-09 0.0) (3.13905e-05 -1.29371e-09 0.0) (3.14044e-05 -1.04322e-09 0.0) (3.14155e-05 -8.5e-10 0.0) (3.14242e-05 -6.93339e-10 0.0) (3.14308e-05 -5.52764e-10 0.0) (3.14353e-05 -4.08374e-10 0.0) (3.14378e-05 -2.41207e-10 0.0) (3.14379e-05 -3.3683e-11 0.0) (3.14354e-05 2.30307e-10 0.0) (3.143e-05 5.64575e-10 0.0) (3.14212e-05 9.81014e-10 0.0) (3.14085e-05 1.49063e-09 0.0) (3.13911e-05 2.09958e-09 0.0) (3.13686e-05 2.81219e-09 0.0) (3.13402e-05 3.62987e-09 0.0) (3.13053e-05 4.55066e-09 0.0) (3.12633e-05 5.57304e-09 0.0) (3.12134e-05 6.69173e-09 0.0) (3.11552e-05 7.89579e-09 0.0) (3.10882e-05 9.17452e-09 0.0) (3.10118e-05 1.05145e-08 0.0) (3.09259e-05 1.19001e-08 0.0) (3.08302e-05 1.33223e-08 0.0) (3.07244e-05 1.47629e-08 0.0) (3.06085e-05 1.62016e-08 0.0) (3.04826e-05 1.7622e-08 0.0) (3.03469e-05 1.9006e-08 0.0) (3.02019e-05 2.03363e-08 0.0) (3.00479e-05 2.16086e-08 0.0) (2.98851e-05 2.28019e-08 0.0) (2.97143e-05 2.39002e-08 0.0) (2.95362e-05 2.48932e-08 0.0) (2.93514e-05 2.57701e-08 0.0) (2.91611e-05 2.65232e-08 0.0) (2.89659e-05 2.71602e-08 0.0) (2.87664e-05 2.76665e-08 0.0) (2.85637e-05 2.80371e-08 0.0) (2.83586e-05 2.82719e-08 0.0) (2.81525e-05 2.83744e-08 0.0) (2.79459e-05 2.83609e-08 0.0) (2.77394e-05 2.82235e-08 0.0) (2.75341e-05 2.79666e-08 0.0) (2.73307e-05 2.75989e-08 0.0) (2.71301e-05 2.71269e-08 0.0) (2.69332e-05 2.65617e-08 0.0) (2.67402e-05 2.59231e-08 0.0) (2.65516e-05 2.52083e-08 0.0) (2.63681e-05 2.44264e-08 0.0) (2.619e-05 2.35887e-08 0.0) (2.60179e-05 2.27038e-08 0.0) (2.58521e-05 2.1784e-08 0.0) (2.56928e-05 2.08461e-08 0.0) (2.55398e-05 1.98884e-08 0.0) (2.53934e-05 1.89194e-08 0.0) (2.52539e-05 1.79481e-08 0.0) (2.51211e-05 1.69811e-08 0.0) (2.49951e-05 1.60278e-08 0.0) (2.48758e-05 1.50991e-08 0.0) (2.47627e-05 1.41932e-08 0.0) (2.46559e-05 1.33152e-08 0.0) (2.45552e-05 1.24709e-08 0.0) (2.44603e-05 1.16639e-08 0.0) (2.43711e-05 1.08998e-08 0.0) (2.42871e-05 1.01847e-08 0.0) (2.42079e-05 9.51661e-09 0.0) (2.41332e-05 8.89815e-09 0.0) (2.40627e-05 8.33185e-09 0.0) (2.39961e-05 7.82157e-09 0.0) (2.39329e-05 7.3711e-09 0.0) (2.38725e-05 6.97937e-09 0.0) (2.38145e-05 6.64811e-09 0.0) (2.37587e-05 6.37963e-09 0.0) (2.37044e-05 6.17561e-09 0.0) (2.36512e-05 6.03894e-09 0.0) (2.35986e-05 5.97342e-09 0.0) (2.35459e-05 5.98005e-09 0.0) (2.34927e-05 6.06097e-09 0.0) (2.34383e-05 6.2197e-09 0.0) (2.33823e-05 6.45957e-09 0.0) (2.33239e-05 6.78493e-09 0.0) (2.32626e-05 7.20293e-09 0.0) (2.31974e-05 7.71837e-09 0.0) (2.31278e-05 8.33603e-09 0.0) (2.30529e-05 9.06349e-09 0.0) (2.29718e-05 9.90856e-09 0.0) (2.28837e-05 1.08804e-08 0.0) (2.27877e-05 1.19945e-08 0.0) (2.26823e-05 1.3263e-08 0.0) (2.25666e-05 1.46974e-08 0.0) (2.24393e-05 1.63149e-08 0.0) (2.22991e-05 1.81339e-08 0.0) (2.21444e-05 2.01755e-08 0.0) (2.19736e-05 2.2474e-08 0.0) (2.17844e-05 2.50585e-08 0.0) (2.1575e-05 2.7957e-08 0.0) (2.13431e-05 3.12089e-08 0.0) (2.10863e-05 3.48598e-08 0.0) (2.08016e-05 3.89789e-08 0.0) (2.04852e-05 4.36296e-08 0.0) (2.01338e-05 4.88764e-08 0.0) (1.97433e-05 5.48091e-08 0.0) (1.93091e-05 6.15268e-08 0.0) (1.88265e-05 6.91457e-08 0.0) (1.82892e-05 7.78345e-08 0.0) (1.76897e-05 8.77563e-08 0.0) (1.70211e-05 9.90756e-08 0.0) (1.62753e-05 1.12004e-07 0.0) (1.5443e-05 1.26757e-07 0.0) (1.45157e-05 1.43542e-07 0.0) (1.34822e-05 1.62597e-07 0.0) (1.23304e-05 1.83973e-07 0.0) (1.10526e-05 2.07394e-07 0.0) (9.64316e-06 2.3205e-07 0.0) (8.10324e-06 2.55974e-07 0.0) (6.44964e-06 2.75111e-07 0.0) (4.71824e-06 2.82108e-07 0.0) (2.98351e-06 2.63916e-07 0.0) (1.3873e-06 2.01362e-07 0.0) (1.54706e-07 7.11118e-08 0.0) (-4.35689e-07 -1.40581e-07 0.0) (-3.1331e-07 -3.4051e-07 0.0) (2.33527e-11 4.07125e-11 0.0) (1.73924e-11 1.05811e-11 0.0) (1.34307e-11 2.29386e-12 0.0) (9.60741e-12 3.67391e-13 0.0) (8.41875e-12 6.36536e-14 0.0) (8.07636e-12 -1.13867e-14 0.0) (7.95433e-12 -3.2975e-14 0.0) (7.938e-12 -3.13675e-14 0.0) (7.9439e-12 -1.70484e-14 0.0) (7.95758e-12 -1.12085e-17 0.0) (7.94365e-12 1.73308e-14 0.0) (7.93756e-12 3.11208e-14 0.0) (7.95392e-12 3.31184e-14 0.0) (8.07609e-12 1.10287e-14 0.0) (8.41834e-12 -6.36225e-14 0.0) (9.61144e-12 -3.69421e-13 0.0) (1.34354e-11 -2.29914e-12 0.0) (1.73943e-11 -1.05787e-11 0.0) (2.3354e-11 -4.07115e-11 0.0) (-3.14638e-07 3.40742e-07 0.0) (-4.37353e-07 1.40472e-07 0.0) (1.53732e-07 -7.11426e-08 0.0) (1.3858e-06 -2.01254e-07 0.0) (2.98194e-06 -2.64242e-07 0.0) (4.72125e-06 -2.82926e-07 0.0) (6.46183e-06 -2.76357e-07 0.0) (8.12614e-06 -2.57428e-07 0.0) (9.67596e-06 -2.33694e-07 0.0) (1.10946e-05 -2.0924e-07 0.0) (1.23831e-05 -1.86042e-07 0.0) (1.35483e-05 -1.64817e-07 0.0) (1.4597e-05 -1.45824e-07 0.0) (1.55395e-05 -1.29023e-07 0.0) (1.63846e-05 -1.14279e-07 0.0) (1.71436e-05 -1.01377e-07 0.0) (1.78261e-05 -9.00469e-08 0.0) (1.84393e-05 -8.00919e-08 0.0) (1.89905e-05 -7.13324e-08 0.0) (1.9486e-05 -6.36029e-08 0.0) (1.99311e-05 -5.67794e-08 0.0) (2.03317e-05 -5.07417e-08 0.0) (2.06926e-05 -4.53624e-08 0.0) (2.10171e-05 -4.05553e-08 0.0) (2.13089e-05 -3.62468e-08 0.0) (2.15708e-05 -3.23694e-08 0.0) (2.18054e-05 -2.88745e-08 0.0) (2.20153e-05 -2.57143e-08 0.0) (2.22029e-05 -2.28331e-08 0.0) (2.23697e-05 -2.01957e-08 0.0) (2.25173e-05 -1.77708e-08 0.0) (2.2647e-05 -1.55293e-08 0.0) (2.276e-05 -1.34504e-08 0.0) (2.28575e-05 -1.1512e-08 0.0) (2.29405e-05 -9.68753e-09 0.0) (2.30097e-05 -7.96099e-09 0.0) (2.30657e-05 -6.31762e-09 0.0) (2.31091e-05 -4.74353e-09 0.0) (2.31403e-05 -3.22912e-09 0.0) (2.31599e-05 -1.76166e-09 0.0) (2.31681e-05 -3.28514e-10 0.0) (2.31652e-05 1.0767e-09 0.0) (2.31514e-05 2.4607e-09 0.0) (2.31268e-05 3.82783e-09 0.0) (2.30916e-05 5.18731e-09 0.0) (2.30458e-05 6.54395e-09 0.0) (2.29895e-05 7.89897e-09 0.0) (2.29227e-05 9.25507e-09 0.0) (2.28455e-05 1.06133e-08 0.0) (2.27578e-05 1.19735e-08 0.0) (2.26598e-05 1.33427e-08 0.0) (2.25511e-05 1.47181e-08 0.0) (2.2432e-05 1.60957e-08 0.0) (2.23024e-05 1.74744e-08 0.0) (2.21623e-05 1.8851e-08 0.0) (2.2012e-05 2.02221e-08 0.0) (2.18514e-05 2.1595e-08 0.0) (2.16802e-05 2.29605e-08 0.0) (2.14989e-05 2.43115e-08 0.0) (2.13074e-05 2.56454e-08 0.0) (2.11059e-05 2.69567e-08 0.0) (2.0895e-05 2.82414e-08 0.0) (2.06745e-05 2.95095e-08 0.0) (2.04442e-05 3.0748e-08 0.0) (2.02048e-05 3.19497e-08 0.0) (1.99565e-05 3.31132e-08 0.0) (1.96996e-05 3.4234e-08 0.0) (1.94346e-05 3.53104e-08 0.0) (1.91617e-05 3.63574e-08 0.0) (1.88806e-05 3.73611e-08 0.0) (1.8592e-05 3.83167e-08 0.0) (1.82963e-05 3.92243e-08 0.0) (1.79942e-05 4.00872e-08 0.0) (1.76856e-05 4.09257e-08 0.0) (1.73702e-05 4.1728e-08 0.0) (1.70487e-05 4.2494e-08 0.0) (1.67214e-05 4.32309e-08 0.0) (1.63885e-05 4.39423e-08 0.0) (1.60504e-05 4.46371e-08 0.0) (1.57069e-05 4.53432e-08 0.0) (1.53574e-05 4.60541e-08 0.0) (1.50024e-05 4.67768e-08 0.0) (1.46417e-05 4.75265e-08 0.0) (1.42751e-05 4.83154e-08 0.0) (1.39027e-05 4.91622e-08 0.0) (1.35237e-05 5.01069e-08 0.0) (1.31369e-05 5.11549e-08 0.0) (1.27421e-05 5.23263e-08 0.0) (1.23383e-05 5.36527e-08 0.0) (1.19246e-05 5.51648e-08 0.0) (1.15002e-05 5.69026e-08 0.0) (1.10632e-05 5.89344e-08 0.0) (1.06109e-05 6.1297e-08 0.0) (1.0142e-05 6.40427e-08 0.0) (9.65418e-06 6.72441e-08 0.0) (9.1446e-06 7.09764e-08 0.0) (8.61095e-06 7.53274e-08 0.0) (8.04917e-06 8.04217e-08 0.0) (7.45462e-06 8.6339e-08 0.0) (6.82414e-06 9.31343e-08 0.0) (6.15388e-06 1.00822e-07 0.0) (5.44152e-06 1.09283e-07 0.0) (4.68446e-06 1.18189e-07 0.0) (3.88282e-06 1.26623e-07 0.0) (3.04502e-06 1.32709e-07 0.0) (2.1891e-06 1.32968e-07 0.0) (1.35106e-06 1.21456e-07 0.0) (5.96318e-07 8.9418e-08 0.0) (2.62185e-08 2.64302e-08 0.0) (-2.32961e-07 -7.3818e-08 0.0) (-1.54098e-07 -1.66996e-07 0.0) (2.8506e-12 4.89936e-12 0.0) (2.11847e-12 1.2813e-12 0.0) (1.62955e-12 2.85082e-13 0.0) (1.14632e-12 5.01886e-14 0.0) (9.83859e-13 1.12892e-14 0.0) (9.28164e-13 9.65921e-16 0.0) (9.05381e-13 -3.01295e-15 0.0) (8.9869e-13 -3.59677e-15 0.0) (8.98716e-13 -2.32785e-15 0.0) (8.9977e-13 -3.45984e-16 0.0) (8.99097e-13 1.7461e-15 0.0) (8.98678e-13 3.2405e-15 0.0) (9.03306e-13 3.13385e-15 0.0) (9.21546e-13 -1.58671e-16 0.0) (9.69235e-13 -9.40387e-15 0.0) (1.11678e-12 -4.56945e-14 0.0) (1.57247e-12 -2.70606e-13 0.0) (2.03806e-12 -1.23503e-12 0.0) (2.74146e-12 -4.73769e-12 0.0) (-9.31452e-08 1.01198e-07 0.0) (-2.12497e-07 5.87364e-08 0.0) (-1.62856e-07 5.44214e-09 0.0) (5.97685e-08 -3.16657e-08 0.0) (3.94235e-07 -5.27488e-08 0.0) (7.84862e-07 -6.21239e-08 0.0) (1.193e-06 -6.41038e-08 0.0) (1.59568e-06 -6.19789e-08 0.0) (1.97998e-06 -5.77774e-08 0.0) (2.33846e-06 -5.27333e-08 0.0) (2.66839e-06 -4.75348e-08 0.0) (2.96949e-06 -4.25414e-08 0.0) (3.24253e-06 -3.79435e-08 0.0) (3.48994e-06 -3.38199e-08 0.0) (3.71432e-06 -3.01816e-08 0.0) (3.9179e-06 -2.70417e-08 0.0) (4.10342e-06 -2.44105e-08 0.0) (4.27374e-06 -2.23101e-08 0.0) (4.4317e-06 -2.08e-08 0.0) (4.58091e-06 -1.99823e-08 0.0) (4.72546e-06 -2.00583e-08 0.0) (4.86998e-06 -2.143e-08 0.0) (5.02024e-06 -2.47382e-08 0.0) (5.18353e-06 -3.05556e-08 0.0) (5.3772e-06 -4.03103e-08 0.0) (5.64938e-06 -6.64955e-08 0.0) (5.97502e-06 -1.29655e-07 0.0) (0.000299532 7.95527e-05 0.0) (0.000290741 9.21162e-05 0.0) (0.000253224 6.83697e-05 0.0) (0.000213455 4.72256e-05 0.0) (0.000180764 3.26093e-05 0.0) (0.000155035 2.29568e-05 0.0) (0.000134756 1.66447e-05 0.0) (0.000118637 1.24785e-05 0.0) (0.000105658 9.66452e-06 0.0) (9.50346e-05 7.70751e-06 0.0) (8.61931e-05 6.30512e-06 0.0) (7.87158e-05 5.27164e-06 0.0) (7.22976e-05 4.49103e-06 0.0) (6.6713e-05 3.88907e-06 0.0) (6.17922e-05 3.41711e-06 0.0) (5.74048e-05 3.04241e-06 0.0) (5.3449e-05 2.7424e-06 0.0) (4.98441e-05 2.50124e-06 0.0) (4.65241e-05 2.30758e-06 0.0) (4.34346e-05 2.15318e-06 0.0) (4.05295e-05 2.03202e-06 0.0) (3.77689e-05 1.93968e-06 0.0) (3.51181e-05 1.8729e-06 0.0) (3.25456e-05 1.82925e-06 0.0) (3.00229e-05 1.80685e-06 0.0) (2.75242e-05 1.80411e-06 0.0) (2.50258e-05 1.81935e-06 0.0) (2.25066e-05 1.85035e-06 0.0) (1.99494e-05 1.89354e-06 0.0) (1.73424e-05 1.94286e-06 0.0) (1.46826e-05 1.98774e-06 0.0) (1.19817e-05 2.01013e-06 0.0) (9.27423e-06 1.98032e-06 0.0) (6.62867e-06 1.85236e-06 0.0) (4.16549e-06 1.56376e-06 0.0) (2.07406e-06 1.05284e-06 0.0) (5.92469e-07 3.23177e-07 0.0) (-1.1929e-07 -3.6523e-07 0.0) (6.96695e-12 6.42839e-12 0.0) (6.46236e-12 3.07607e-12 0.0) (5.6205e-12 1.31241e-12 0.0) (4.73068e-12 5.75518e-13 0.0) (4.25613e-12 2.63834e-13 0.0) (4.0112e-12 1.18718e-13 0.0) (3.88201e-12 4.69468e-14 0.0) (3.81841e-12 1.36886e-14 0.0) (3.79363e-12 1.98804e-15 0.0) (3.7871e-12 9.12991e-17 0.0) (3.79509e-12 -2.13839e-15 0.0) (3.82231e-12 -1.51566e-14 0.0) (3.89023e-12 -5.04523e-14 0.0) (4.02657e-12 -1.25131e-13 0.0) (4.28189e-12 -2.73752e-13 0.0) (4.77114e-12 -5.90769e-13 0.0) (5.68123e-12 -1.33699e-12 0.0) (6.5397e-12 -3.11773e-12 0.0) (7.05181e-12 -6.49216e-12 0.0) (-1.32346e-07 4.02318e-07 0.0) (6.99404e-07 -3.87231e-07 0.0) (2.39889e-06 -1.20879e-06 0.0) (4.76678e-06 -1.76799e-06 0.0) (7.51891e-06 -2.06476e-06 0.0) (1.04312e-05 -2.17205e-06 0.0) (1.33589e-05 -2.16238e-06 0.0) (1.62162e-05 -2.08839e-06 0.0) (1.89568e-05 -1.98364e-06 0.0) (2.156e-05 -1.86791e-06 0.0) (2.40203e-05 -1.75218e-06 0.0) (2.63399e-05 -1.64212e-06 0.0) (2.85262e-05 -1.54036e-06 0.0) (3.05892e-05 -1.44769e-06 0.0) (3.25389e-05 -1.36404e-06 0.0) (3.43853e-05 -1.28884e-06 0.0) (3.61381e-05 -1.22128e-06 0.0) (3.78064e-05 -1.16048e-06 0.0) (3.93975e-05 -1.10561e-06 0.0) (4.09182e-05 -1.05587e-06 0.0) (4.23748e-05 -1.01052e-06 0.0) (4.37722e-05 -9.68907e-07 0.0) (4.51146e-05 -9.30457e-07 0.0) (4.64059e-05 -8.94658e-07 0.0) (4.76495e-05 -8.61065e-07 0.0) (4.88477e-05 -8.29301e-07 0.0) (5.00027e-05 -7.99045e-07 0.0) (5.11162e-05 -7.70018e-07 0.0) (5.219e-05 -7.41982e-07 0.0) (5.32251e-05 -7.14745e-07 0.0) (5.42222e-05 -6.88153e-07 0.0) (5.51824e-05 -6.62071e-07 0.0) (5.61062e-05 -6.364e-07 0.0) (5.6994e-05 -6.11069e-07 0.0) (5.78462e-05 -5.86022e-07 0.0) (5.86635e-05 -5.61216e-07 0.0) (5.94459e-05 -5.36636e-07 0.0) (6.01937e-05 -5.12281e-07 0.0) (6.09073e-05 -4.88156e-07 0.0) (6.15871e-05 -4.64272e-07 0.0) (6.22334e-05 -4.40658e-07 0.0) (6.28465e-05 -4.17349e-07 0.0) (6.3427e-05 -3.94376e-07 0.0) (6.39753e-05 -3.71778e-07 0.0) (6.44918e-05 -3.49601e-07 0.0) (6.49774e-05 -3.27884e-07 0.0) (6.54326e-05 -3.06662e-07 0.0) (6.58582e-05 -2.85978e-07 0.0) (6.62549e-05 -2.6587e-07 0.0) (6.66235e-05 -2.46364e-07 0.0) (6.69649e-05 -2.2749e-07 0.0) (6.728e-05 -2.09274e-07 0.0) (6.75696e-05 -1.91732e-07 0.0) (6.78349e-05 -1.74871e-07 0.0) (6.80766e-05 -1.58701e-07 0.0) (6.82957e-05 -1.43224e-07 0.0) (6.84933e-05 -1.28433e-07 0.0) (6.86702e-05 -1.14312e-07 0.0) (6.88274e-05 -1.00847e-07 0.0) (6.89657e-05 -8.80158e-08 0.0) (6.9086e-05 -7.57866e-08 0.0) (6.91892e-05 -6.41273e-08 0.0) (6.92759e-05 -5.30003e-08 0.0) (6.93469e-05 -4.23606e-08 0.0) (6.94029e-05 -3.21582e-08 0.0) (6.94443e-05 -2.23425e-08 0.0) (6.94718e-05 -1.2858e-08 0.0) (6.94856e-05 -3.64284e-09 0.0) (6.94862e-05 5.3685e-09 0.0) (6.94737e-05 1.42425e-08 0.0) (6.94484e-05 2.30494e-08 0.0) (6.94102e-05 3.18676e-08 0.0) (6.9359e-05 4.07752e-08 0.0) (6.92947e-05 4.98546e-08 0.0) (6.9217e-05 5.91952e-08 0.0) (6.91254e-05 6.88914e-08 0.0) (6.90193e-05 7.90399e-08 0.0) (6.88981e-05 8.97435e-08 0.0) (6.87608e-05 1.01116e-07 0.0) (6.86065e-05 1.13274e-07 0.0) (6.8434e-05 1.26343e-07 0.0) (6.82418e-05 1.40461e-07 0.0) (6.80284e-05 1.55778e-07 0.0) (6.77921e-05 1.72453e-07 0.0) (6.75308e-05 1.90659e-07 0.0) (6.72422e-05 2.10591e-07 0.0) (6.69238e-05 2.32465e-07 0.0) (6.65727e-05 2.56512e-07 0.0) (6.61857e-05 2.82989e-07 0.0) (6.57593e-05 3.12197e-07 0.0) (6.52895e-05 3.44456e-07 0.0) (6.47719e-05 3.80129e-07 0.0) (6.42014e-05 4.19633e-07 0.0) (6.35725e-05 4.6344e-07 0.0) (6.28791e-05 5.12073e-07 0.0) (6.21142e-05 5.66122e-07 0.0) (6.12701e-05 6.26275e-07 0.0) (6.03379e-05 6.93311e-07 0.0) (5.93079e-05 7.68099e-07 0.0) (5.81696e-05 8.51616e-07 0.0) (5.69103e-05 9.45003e-07 0.0) (5.55165e-05 1.0495e-06 0.0) (5.39734e-05 1.16648e-06 0.0) (5.22637e-05 1.29745e-06 0.0) (5.03686e-05 1.44405e-06 0.0) (4.82679e-05 1.60785e-06 0.0) (4.594e-05 1.7903e-06 0.0) (4.33611e-05 1.99251e-06 0.0) (4.05081e-05 2.21464e-06 0.0) (3.73595e-05 2.45512e-06 0.0) (3.38965e-05 2.70932e-06 0.0) (3.0109e-05 2.96712e-06 0.0) (2.60032e-05 3.20894e-06 0.0) (2.16128e-05 3.39989e-06 0.0) (1.70143e-05 3.4814e-06 0.0) (1.23536e-05 3.36191e-06 0.0) (7.8827e-06 2.91584e-06 0.0) (3.99157e-06 2.01718e-06 0.0) (1.17252e-06 6.62859e-07 0.0) (-2.17875e-07 -6.55435e-07 0.0) (4.47245e-11 4.19036e-11 0.0) (4.15399e-11 1.96934e-11 0.0) (3.62939e-11 8.18748e-12 0.0) (3.08269e-11 3.466e-12 0.0) (2.8021e-11 1.50594e-12 0.0) (2.6615e-11 6.32542e-13 0.0) (2.5911e-11 2.26755e-13 0.0) (2.55458e-11 5.63084e-14 0.0) (2.54166e-11 1.93223e-15 0.0) (2.53626e-11 1.74448e-16 0.0) (2.54148e-11 -1.40961e-15 0.0) (2.5542e-11 -5.53284e-14 0.0) (2.59041e-11 -2.24771e-13 0.0) (2.66034e-11 -6.2853e-13 0.0) (2.80026e-11 -1.49826e-12 0.0) (3.07962e-11 -3.45126e-12 0.0) (3.62429e-11 -8.16064e-12 0.0) (4.14712e-11 -1.96532e-11 0.0) (4.46483e-11 -4.18635e-11 0.0) (-2.23887e-07 6.86684e-07 0.0) (7.07019e-07 -3.45371e-07 0.0) (2.79048e-06 -1.44558e-06 0.0) (5.72268e-06 -2.16161e-06 0.0) (9.05999e-06 -2.47517e-06 0.0) (1.24402e-05 -2.48485e-06 0.0) (1.56147e-05 -2.29496e-06 0.0) (1.8424e-05 -1.98391e-06 0.0) (2.07699e-05 -1.60251e-06 0.0) (2.25914e-05 -1.18131e-06 0.0) (2.38519e-05 -7.37548e-07 0.0) (2.45291e-05 -2.8038e-07 0.0) (2.46088e-05 1.85053e-07 0.0) (2.4083e-05 6.54435e-07 0.0) (2.29507e-05 1.1216e-06 0.0) (2.12206e-05 1.57549e-06 0.0) (1.8918e-05 1.99573e-06 0.0) (1.6097e-05 2.34666e-06 0.0) (1.28574e-05 2.56999e-06 0.0) (9.36635e-06 2.57763e-06 0.0) (5.89305e-06 2.25355e-06 0.0) (2.83454e-06 1.49071e-06 0.0) (6.76378e-07 3.13429e-07 0.0) (-2.53617e-07 -7.79057e-07 0.0) (8.57423e-11 8.05904e-11 0.0) (7.96581e-11 3.77265e-11 0.0) (6.96642e-11 1.56027e-11 0.0) (5.92823e-11 6.55723e-12 0.0) (5.39893e-11 2.82087e-12 0.0) (5.13569e-11 1.16731e-12 0.0) (5.00489e-11 4.11946e-13 0.0) (4.93684e-11 9.86236e-14 0.0) (4.91293e-11 2.71072e-15 0.0) (4.903e-11 -8.86374e-16 0.0) (4.91352e-11 -2.3803e-15 0.0) (4.93832e-11 -1.04494e-13 0.0) (5.00767e-11 -4.2073e-13 0.0) (5.14065e-11 -1.18762e-12 0.0) (5.40701e-11 -2.8519e-12 0.0) (5.9413e-11 -6.61338e-12 0.0) (6.9868e-11 -1.5694e-11 0.0) (7.99262e-11 -3.78723e-11 0.0) (8.60344e-11 -8.07813e-11 0.0) (-2.68162e-07 7.92926e-07 0.0) (1.77203e-06 -1.04204e-06 0.0) (5.7554e-06 -2.87918e-06 0.0) (1.11689e-05 -4.07305e-06 0.0) (1.73307e-05 -4.64442e-06 0.0) (2.37134e-05 -4.77392e-06 0.0) (2.99791e-05 -4.63561e-06 0.0) (3.59345e-05 -4.35496e-06 0.0) (4.14823e-05 -4.01116e-06 0.0) (4.65846e-05 -3.6506e-06 0.0) (5.12374e-05 -3.29881e-06 0.0) (5.54573e-05 -2.96871e-06 0.0) (5.92733e-05 -2.66569e-06 0.0) (6.27168e-05 -2.39121e-06 0.0) (6.58206e-05 -2.14446e-06 0.0) (6.86173e-05 -1.92351e-06 0.0) (7.11375e-05 -1.72596e-06 0.0) (7.3408e-05 -1.54937e-06 0.0) (7.54535e-05 -1.39137e-06 0.0) (7.72967e-05 -1.24972e-06 0.0) (7.89573e-05 -1.12241e-06 0.0) (8.04528e-05 -1.00773e-06 0.0) (8.17983e-05 -9.04145e-07 0.0) (8.30082e-05 -8.10322e-07 0.0) (8.40944e-05 -7.2515e-07 0.0) (8.50678e-05 -6.47688e-07 0.0) (8.59384e-05 -5.77125e-07 0.0) (8.67151e-05 -5.12779e-07 0.0) (8.7406e-05 -4.54099e-07 0.0) (8.80183e-05 -4.00624e-07 0.0) (8.85591e-05 -3.51952e-07 0.0) (8.90347e-05 -3.07743e-07 0.0) (8.94511e-05 -2.6772e-07 0.0) (8.98137e-05 -2.31634e-07 0.0) (9.01281e-05 -1.99249e-07 0.0) (9.0399e-05 -1.70357e-07 0.0) (9.06312e-05 -1.44757e-07 0.0) (9.0829e-05 -1.22239e-07 0.0) (9.09967e-05 -1.02592e-07 0.0) (9.1138e-05 -8.56041e-08 0.0) (9.12564e-05 -7.1049e-08 0.0) (9.13552e-05 -5.86845e-08 0.0) (9.14372e-05 -4.82636e-08 0.0) (9.15049e-05 -3.95265e-08 0.0) (9.15605e-05 -3.22025e-08 0.0) (9.16058e-05 -2.60148e-08 0.0) (9.16421e-05 -2.0686e-08 0.0) (9.16705e-05 -1.59378e-08 0.0) (9.16915e-05 -1.14955e-08 0.0) (9.17056e-05 -7.09307e-09 0.0) (9.17126e-05 -2.47871e-09 0.0) (9.1712e-05 2.58313e-09 0.0) (9.17032e-05 8.30745e-09 0.0) (9.16851e-05 1.48721e-08 0.0) (9.16566e-05 2.24416e-08 0.0) (9.16162e-05 3.11613e-08 0.0) (9.15623e-05 4.11153e-08 0.0) (9.14931e-05 5.2364e-08 0.0) (9.14071e-05 6.49322e-08 0.0) (9.13024e-05 7.87892e-08 0.0) (9.11774e-05 9.3905e-08 0.0) (9.10302e-05 1.10227e-07 0.0) (9.08594e-05 1.27623e-07 0.0) (9.06636e-05 1.45953e-07 0.0) (9.04418e-05 1.65053e-07 0.0) (9.01934e-05 1.84712e-07 0.0) (8.99175e-05 2.04758e-07 0.0) (8.96131e-05 2.25008e-07 0.0) (8.92808e-05 2.45209e-07 0.0) (8.89206e-05 2.65138e-07 0.0) (8.85332e-05 2.84576e-07 0.0) (8.81199e-05 3.0328e-07 0.0) (8.76813e-05 3.2109e-07 0.0) (8.72182e-05 3.37829e-07 0.0) (8.67328e-05 3.53299e-07 0.0) (8.62269e-05 3.6735e-07 0.0) (8.57025e-05 3.79852e-07 0.0) (8.51627e-05 3.90686e-07 0.0) (8.4609e-05 3.9981e-07 0.0) (8.4043e-05 4.07162e-07 0.0) (8.34679e-05 4.12697e-07 0.0) (8.28864e-05 4.16409e-07 0.0) (8.23016e-05 4.18317e-07 0.0) (8.17153e-05 4.18481e-07 0.0) (8.11289e-05 4.16941e-07 0.0) (8.05456e-05 4.13771e-07 0.0) (7.99676e-05 4.09061e-07 0.0) (7.9397e-05 4.02916e-07 0.0) (7.88365e-05 3.95461e-07 0.0) (7.82869e-05 3.86824e-07 0.0) (7.7749e-05 3.77105e-07 0.0) (7.72252e-05 3.66445e-07 0.0) (7.67166e-05 3.54977e-07 0.0) (7.62242e-05 3.42835e-07 0.0) (7.57496e-05 3.30169e-07 0.0) (7.52927e-05 3.17099e-07 0.0) (7.48533e-05 3.03718e-07 0.0) (7.44326e-05 2.90163e-07 0.0) (7.40307e-05 2.76547e-07 0.0) (7.36476e-05 2.62973e-07 0.0) (7.32837e-05 2.49563e-07 0.0) (7.29382e-05 2.36392e-07 0.0) (7.26102e-05 2.23522e-07 0.0) (7.22998e-05 2.11047e-07 0.0) (7.20064e-05 1.9904e-07 0.0) (7.17293e-05 1.87564e-07 0.0) (7.14681e-05 1.76694e-07 0.0) (7.12215e-05 1.6647e-07 0.0) (7.09883e-05 1.56923e-07 0.0) (7.07678e-05 1.48111e-07 0.0) (7.05591e-05 1.40076e-07 0.0) (7.03611e-05 1.32865e-07 0.0) (7.01726e-05 1.26504e-07 0.0) (6.99919e-05 1.21018e-07 0.0) (6.98182e-05 1.16451e-07 0.0) (6.96501e-05 1.12835e-07 0.0) (6.94863e-05 1.10205e-07 0.0) (6.93255e-05 1.086e-07 0.0) (6.9166e-05 1.08055e-07 0.0) (6.90061e-05 1.08614e-07 0.0) (6.88445e-05 1.10325e-07 0.0) (6.86794e-05 1.13238e-07 0.0) (6.85092e-05 1.17412e-07 0.0) (6.83322e-05 1.22905e-07 0.0) (6.81463e-05 1.29795e-07 0.0) (6.79492e-05 1.38181e-07 0.0) (6.77389e-05 1.48147e-07 0.0) (6.75132e-05 1.59801e-07 0.0) (6.72697e-05 1.73264e-07 0.0) (6.70059e-05 1.88655e-07 0.0) (6.67189e-05 2.06148e-07 0.0) (6.6405e-05 2.25954e-07 0.0) (6.60613e-05 2.48251e-07 0.0) (6.56842e-05 2.7327e-07 0.0) (6.52697e-05 3.01276e-07 0.0) (6.48141e-05 3.32525e-07 0.0) (6.43122e-05 3.67394e-07 0.0) (6.37578e-05 4.06336e-07 0.0) (6.31459e-05 4.49742e-07 0.0) (6.24699e-05 4.9812e-07 0.0) (6.17239e-05 5.51976e-07 0.0) (6.08991e-05 6.12031e-07 0.0) (5.99852e-05 6.79148e-07 0.0) (5.89735e-05 7.54092e-07 0.0) (5